# vtk DataFile Version 5.1
vtk output
ASCII
DATASET STRUCTURED_GRID
DIMENSIONS 24 16 20
POINTS 7680 float
6.18944 0.629605 0.415865 6.18934 0.673071 0.415865 6.18923 0.715271 0.415865 
6.18914 0.755661 0.415865 6.18904 0.793797 0.415865 6.18896 0.829346 0.415865 
6.18888 0.86209 0.415865 6.18881 0.89192 0.415865 6.18874 0.918828 0.415865 
6.18868 0.942881 0.415865 6.18863 0.964212 0.415865 6.18858 0.982995 0.415865 
6.18854 0.999433 0.415865 6.18851 1.01374 0.415865 6.18848 1.02613 0.415865 
6.18845 1.03683 0.415865 6.18843 1.04602 0.415865 6.18841 1.05391 0.415865 
6.18839 1.06065 0.415865 6.18838 1.0664 0.415865 6.18837 1.0713 0.415865 
6.18836 1.07546 0.415865 6.18835 1.079 0.415865 6.18834 1.082 0.415865 
6.22967 0.626949 0.415865 6.22956 0.670741 0.415865 6.22946 0.713254 0.415865 
6.22936 0.753938 0.415865 6.22926 0.792344 0.415865 6.22917 0.828137 0.415865 
6.22909 0.861097 0.415865 6.22902 0.891116 0.415865 6.22895 0.918185 0.415865 
6.22889 0.942375 0.415865 6.22884 0.963819 0.415865 6.22879 0.982695 0.415865 
6.22875 0.999208 0.415865 6.22871 1.01357 0.415865 6.22868 1.02602 0.415865 
6.22865 1.03675 0.415865 6.22863 1.04597 0.415865 6.22861 1.05387 0.415865 
6.22859 1.06062 0.415865 6.22858 1.06639 0.415865 6.22857 1.07129 0.415865 
6.22856 1.07546 0.415865 6.22855 1.079 0.415865 6.22854 1.082 0.415865 
6.26988 0.624295 0.415865 6.26977 0.668414 0.415865 6.26966 0.711238 0.415865 
6.26956 0.752215 0.415865 6.26946 0.790892 0.415865 6.26937 0.826928 0.415865 
6.26929 0.860105 0.415865 6.26921 0.890313 0.415865 6.26915 0.917543 0.415865 
6.26909 0.941869 0.415865 6.26903 0.963427 0.415865 6.26898 0.982396 0.415865 
6.26894 0.998984 0.415865 6.26891 1.01341 0.415865 6.26887 1.0259 0.415865 
6.26885 1.03666 0.415865 6.26882 1.04591 0.415865 6.2688 1.05383 0.415865 
6.26879 1.0606 0.415865 6.26877 1.06637 0.415865 6.26876 1.07129 0.415865 
6.26875 1.07546 0.415865 6.26874 1.079 0.415865 6.26873 1.082 0.415865 
6.31006 0.621644 0.415865 6.30995 0.666088 0.415865 6.30985 0.709224 0.415865 
6.30974 0.750495 0.415865 6.30965 0.789441 0.415865 6.30956 0.825721 0.415865 
6.30947 0.859114 0.415865 6.3094 0.88951 0.415865 6.30933 0.916902 0.415865 
6.30927 0.941365 0.415865 6.30921 0.963036 0.415865 6.30916 0.982097 0.415865 
6.30912 0.99876 0.415865 6.30909 1.01325 0.415865 6.30905 1.02578 0.415865 
6.30903 1.03658 0.415865 6.309 1.04586 0.415865 6.30898 1.0538 0.415865 
6.30897 1.06058 0.415865 6.30895 1.06636 0.415865 6.30894 1.07128 0.415865 
6.30893 1.07546 0.415865 6.30892 1.079 0.415865 6.30891 1.082 0.415865 
6.35022 0.618995 0.415865 6.35011 0.663765 0.415865 6.35001 0.707213 0.415865 
6.3499 0.748776 0.415865 6.34981 0.787992 0.415865 6.34972 0.824516 0.415865 
6.34964 0.858124 0.415865 6.34956 0.888709 0.415865 6.34949 0.916262 0.415865 
6.34943 0.94086 0.415865 6.34938 0.962645 0.415865 6.34933 0.981799 0.415865 
6.34929 0.998536 0.415865 6.34925 1.01308 0.415865 6.34922 1.02566 0.415865 
6.34919 1.0365 0.415865 6.34917 1.0458 0.415865 6.34915 1.05377 0.415865 
6.34913 1.06056 0.415865 6.34912 1.06635 0.415865 6.34911 1.07127 0.415865 
6.3491 1.07545 0.415865 6.34909 1.079 0.415865 6.34908 1.082 0.415865 
6.39036 0.61635 0.415865 6.39025 0.661444 0.415865 6.39015 0.705204 0.415865 
6.39005 0.747059 0.415865 6.38995 0.786544 0.415865 6.38986 0.823311 0.415865 
6.38978 0.857136 0.415865 6.38971 0.887908 0.415865 6.38964 0.915622 0.415865 
6.38958 0.940357 0.415865 6.38953 0.962254 0.415865 6.38948 0.981501 0.415865 
6.38944 0.998313 0.415865 6.38941 1.01292 0.415865 6.38938 1.02555 0.415865 
6.38935 1.03642 0.415865 6.38933 1.04575 0.415865 6.38931 1.05373 0.415865 
6.38929 1.06054 0.415865 6.38928 1.06634 0.415865 6.38926 1.07127 0.415865 
6.38925 1.07545 0.415865 6.38925 1.079 0.415865 6.38924 1.082 0.415865 
6.43047 0.613707 0.415865 6.43036 0.659126 0.415865 6.43026 0.703197 0.415865 
6.43017 0.745344 0.415865 6.43007 0.785099 0.415865 6.42999 0.822109 0.415865 
6.42991 0.856148 0.415865 6.42984 0.887109 0.415865 6.42977 0.914984 0.415865 
6.42971 0.939855 0.415865 6.42966 0.961865 0.415865 6.42962 0.981204 0.415865 
6.42958 0.998091 0.415865 6.42955 1.01275 0.415865 6.42951 1.02543 0.415865 
6.42949 1.03634 0.415865 6.42947 1.04569 0.415865 6.42945 1.0537 0.415865 
6.42943 1.06052 0.415865 6.42942 1.06633 0.415865 6.42941 1.07127 0.415865 
6.4294 1.07545 0.415865 6.42939 1.079 0.415865 6.42938 1.082 0.415865 
6.47055 0.611067 0.415865 6.47045 0.65681 0.415865 6.47035 0.701192 0.415865 
6.47026 0.743632 0.415865 6.47017 0.783655 0.415865 6.47009 0.820908 0.415865 
6.47001 0.855162 0.415865 6.46995 0.88631 0.415865 6.46988 0.914347 0.415865 
6.46983 0.939353 0.415865 6.46978 0.961476 0.415865 6.46974 0.980907 0.415865 
6.4697 0.997868 0.415865 6.46967 1.01259 0.415865 6.46964 1.02531 0.415865 
6.46961 1.03626 0.415865 6.46959 1.04564 0.415865 6.46958 1.05366 0.415865 
6.46956 1.0605 0.415865 6.46955 1.06632 0.415865 6.46954 1.07126 0.415865 
6.46953 1.07545 0.415865 6.46952 1.079 0.415865 6.46951 1.082 0.415865 
6.5106 0.608431 0.415865 6.51051 0.654498 0.415865 6.51041 0.69919 0.415865 
6.51033 0.741921 0.415865 6.51024 0.782213 0.415865 6.51017 0.819708 0.415865 
6.5101 0.854178 0.415865 6.51003 0.885513 0.415865 6.50998 0.91371 0.415865 
6.50992 0.938852 0.415865 6.50988 0.961087 0.415865 6.50984 0.980611 0.415865 
6.5098 0.997647 0.415865 6.50977 1.01243 0.415865 6.50975 1.0252 0.415865 
6.50972 1.03618 0.415865 6.50971 1.04559 0.415865 6.50969 1.05363 0.415865 
6.50968 1.06048 0.415865 6.50966 1.06631 0.415865 6.50965 1.07126 0.415865 
6.50964 1.07545 0.415865 6.50964 1.079 0.415865 6.50963 1.082 0.415865 
6.55062 0.605798 0.415865 6.55053 0.652188 0.415865 6.55045 0.69719 0.415865 
6.55037 0.740213 0.415865 6.55029 0.780773 0.415865 6.55022 0.81851 0.415865 
6.55016 0.853195 0.415865 6.5501 0.884717 0.415865 6.55005 0.913075 0.415865 
6.55 0.938352 0.415865 6.54996 0.9607 0.415865 6.54992 0.980316 0.415865 
6.54989 0.997425 0.415865 6.54986 1.01227 0.415865 6.54984 1.02508 0.415865 
6.54982 1.03609 0.415865 6.5498 1.04553 0.415865 6.54979 1.05359 0.415865 
6.54977 1.06046 0.415865 6.54976 1.0663 0.415865 6.54975 1.07125 0.415865 
6.54974 1.07545 0.415865 6.54974 1.079 0.415865 6.54973 1.082 0.415865 
6.5906 0.603168 0.415865 6.59053 0.649882 0.415865 6.59045 0.695194 0.415865 
6.59038 0.738507 0.415865 6.59032 0.779335 0.415865 6.59025 0.817314 0.415865 
6.5902 0.852213 0.415865 6.59015 0.883923 0.415865 6.5901 0.91244 0.415865 
6.59006 0.937853 0.415865 6.59002 0.960313 0.415865 6.58999 0.980021 0.415865 
6.58996 0.997205 0.415865 6.58994 1.0121 0.415865 6.58991 1.02496 0.415865 
6.5899 1.03601 0.415865 6.58988 1.04548 0.415865 6.58987 1.05356 0.415865 
6.58985 1.06044 0.415865 6.58985 1.06629 0.415865 6.58984 1.07125 0.415865 
6.58983 1.07545 0.415865 6.58982 1.079 0.415865 6.58982 1.082 0.415865 
6.63056 0.600542 0.415865 6.63049 0.647578 0.415865 6.63043 0.6932 0.415865 
6.63037 0.736804 0.415865 6.63031 0.777899 0.415865 6.63026 0.81612 0.415865 
6.63021 0.851234 0.415865 6.63017 0.88313 0.415865 6.63013 0.911807 0.415865 
6.63009 0.937354 0.415865 6.63006 0.959927 0.415865 6.63003 0.979727 0.415865 
6.63001 0.996984 0.415865 6.62999 1.01194 0.415865 6.62997 1.02485 0.415865 
6.62995 1.03593 0.415865 6.62994 1.04543 0.415865 6.62993 1.05352 0.415865 
6.62992 1.06042 0.415865 6.62991 1.06628 0.415865 6.62991 1.07124 0.415865 
6.6299 1.07545 0.415865 6.62989 1.079 0.415865 6.62989 1.082 0.415865 
6.67047 0.59792 0.415865 6.67042 0.645279 0.415865 6.67037 0.691209 0.415865 
6.67032 0.735104 0.415865 6.67028 0.776466 0.415865 6.67024 0.814928 0.415865 
6.6702 0.850255 0.415865 6.67016 0.882338 0.415865 6.67013 0.911175 0.415865 
6.6701 0.936857 0.415865 6.67008 0.959541 0.415865 6.67006 0.979433 0.415865 
6.67004 0.996765 0.415865 6.67002 1.01178 0.415865 6.67001 1.02473 0.415865 
6.67 1.03585 0.415865 6.66998 1.04537 0.415865 6.66998 1.05349 0.415865 
6.66997 1.0604 0.415865 6.66996 1.06627 0.415865 6.66996 1.07124 0.415865 
6.66995 1.07544 0.415865 6.66995 1.079 0.415865 6.66994 1.082 0.415865 
6.71036 0.595302 0.415865 6.71032 0.642983 0.415865 6.71028 0.689222 0.415865 
6.71025 0.733406 0.415865 6.71022 0.775035 0.415865 6.71019 0.813738 0.415865 
6.71016 0.849279 0.415865 6.71013 0.881547 0.415865 6.71011 0.910544 0.415865 
6.71009 0.936361 0.415865 6.71008 0.959157 0.415865 6.71006 0.97914 0.415865 
6.71005 0.996545 0.415865 6.71004 1.01162 0.415865 6.71003 1.02462 0.415865 
6.71002 1.03577 0.415865 6.71001 1.04532 0.415865 6.71 1.05346 0.415865 
6.71 1.06038 0.415865 6.70999 1.06626 0.415865 6.70999 1.07123 0.415865 
6.70999 1.07544 0.415865 6.70998 1.079 0.415865 6.70998 1.082 0.415865 
6.7502 0.592688 0.415865 6.75018 0.64069 0.415865 6.75016 0.687237 0.415865 
6.75014 0.731711 0.415865 6.75013 0.773606 0.415865 6.75011 0.81255 0.415865 
6.75009 0.848304 0.415865 6.75008 0.880759 0.415865 6.75007 0.909915 0.415865 
6.75006 0.935866 0.415865 6.75005 0.958773 0.415865 6.75004 0.978848 0.415865 
6.75003 0.996327 0.415865 6.75003 1.01146 0.415865 6.75002 1.0245 0.415865 
6.75002 1.0357 0.415865 6.75002 1.04527 0.415865 6.75001 1.05342 0.415865 
6.75001 1.06036 0.415865 6.75001 1.06624 0.415865 6.75 1.07123 0.415865 
6.75 1.07544 0.415865 6.75 1.079 0.415865 6.75 1.082 0.415865 
6.79 0.590079 0.415865 6.79 0.638401 0.415865 6.79 0.685256 0.415865 
6.79 0.730018 0.415865 6.79 0.77218 0.415865 6.79 0.811364 0.415865 
6.79 0.847331 0.415865 6.79 0.879971 0.415865 6.79 0.909286 0.415865 
6.79 0.935371 0.415865 6.79 0.958391 0.415865 6.79 0.978556 0.415865 
6.79 0.996109 0.415865 6.79 1.0113 0.415865 6.79 1.02439 0.415865 
6.79 1.03562 0.415865 6.79 1.04521 0.415865 6.79 1.05339 0.415865 
6.79 1.06034 0.415865 6.79 1.06623 0.415865 6.79 1.07122 0.415865 
6.79 1.07544 0.415865 6.79 1.079 0.415865 6.79 1.082 0.415865 
6.18944 0.629605 0.401362 6.18934 0.673071 0.401362 6.18923 0.715271 0.401362 
6.18914 0.755661 0.401362 6.18904 0.793797 0.401362 6.18896 0.829346 0.401362 
[...]
POINT_DATA 7680
FIELD FieldData 5
pressure 1 7680 float
0.169389 0.168722 0.1669 0.163894 0.160986 0.158182 0.156479 0.1563 0.157842 
0.159777 0.161381 0.162576 0.163273 0.163753 0.163771 0.163792 0.163763 0.163682 
0.163743 0.16364 0.163725 0.163679 0.163753 0.163701 0.171549 0.172068 0.170667 
0.168695 0.166484 0.164516 0.162768 0.162209 0.162732 0.162565 0.162494 0.162197 
0.162305 0.162424 0.162648 0.162847 0.162955 0.163088 0.163068 0.163177 0.16314 
0.163192 0.163249 0.163079 0.173567 0.174341 0.172816 0.171105 0.169745 0.168406 
0.165741 0.16418 0.162655 0.162241 0.161864 0.162041 0.162144 0.16238 0.162468 
0.162603 0.162684 0.162702 0.162774 0.162788 0.162806 0.162893 0.162802 0.162916 
0.176423 0.17636 0.174805 0.173234 0.171989 0.169718 0.166845 0.164557 0.163136 
0.162445 0.162204 0.162152 0.16223 0.162195 0.162305 0.162291 0.16236 0.16239 
0.162486 0.162491 0.162618 0.16258 0.162671 0.162372 0.179684 0.179157 0.17707 
0.175162 0.173075 0.170376 0.167399 0.165369 0.16383 0.163066 0.162475 0.162298 
0.16202 0.162058 0.16191 0.162008 0.16199 0.162145 0.162148 0.162314 0.162312 
0.162441 0.162358 0.162462 0.183484 0.182168 0.179245 0.176325 0.173805 0.17102 
0.168411 0.166285 0.164798 0.163563 0.162959 0.162381 0.162221 0.161909 0.161986 
0.161896 0.162081 0.162089 0.162296 0.162357 0.162454 0.162563 0.162553 0.162399 
0.186656 0.184778 0.180811 0.177398 0.174604 0.172164 0.169522 0.167525 0.165516 
0.164336 0.163343 0.162933 0.162391 0.162391 0.162167 0.162341 0.162314 0.162527 
0.162621 0.162689 0.162888 0.162835 0.162952 0.16299 0.189394 0.186767 0.182766 
0.178708 0.1761 0.173334 0.170998 0.168369 0.166515 0.164924 0.164219 0.163431 
0.163272 0.162897 0.163023 0.162955 0.163126 0.163252 0.163319 0.163587 0.163454 
0.163791 0.163685 0.163717 0.191264 0.188927 0.184907 0.181095 0.177771 0.175 
0.17183 0.169567 0.167196 0.166077 0.164981 0.164616 0.164066 0.164097 0.163964 
0.164049 0.164167 0.164206 0.164484 0.164339 0.16472 0.164583 0.164824 0.164884 
0.193027 0.190927 0.18785 0.183594 0.180248 0.176337 0.173262 0.170357 0.168491 
0.166979 0.166387 0.16565 0.165533 0.165314 0.165331 0.165432 0.165428 0.165716 
0.165594 0.165969 0.165842 0.166176 0.166196 0.166222 0.194683 0.1938 0.190785 
0.187051 0.182621 0.178521 0.174542 0.171947 0.169576 0.168593 0.167607 0.167284 
0.166939 0.166862 0.166921 0.166861 0.167125 0.167031 0.167347 0.167277 0.16761 
0.167613 0.167826 0.167991 0.196884 0.196708 0.194479 0.19033 0.185858 0.180856 
0.17685 0.173541 0.171491 0.170072 0.169417 0.168891 0.168657 0.168647 0.168541 
0.168746 0.168723 0.168994 0.169039 0.16931 0.169396 0.169615 0.169809 0.169734 
0.199377 0.20018 0.197787 0.193975 0.188993 0.18423 0.179398 0.176043 0.173415 
0.172169 0.17127 0.170732 0.170563 0.170367 0.170492 0.170497 0.170699 0.170805 
0.171025 0.17116 0.171411 0.171549 0.171738 0.171991 0.202293 0.203069 0.200677 
0.19649 0.191813 0.186749 0.182206 0.178358 0.17595 0.174467 0.173488 0.173024 
0.172612 0.172588 0.172534 0.172644 0.172768 0.172959 0.17313 0.173385 0.173536 
0.173809 0.174042 0.174018 0.205095 0.205967 0.203024 0.198976 0.194208 0.189903 
0.185322 0.181588 0.178794 0.177159 0.176157 0.17543 0.175054 0.174875 0.174803 
0.174839 0.17492 0.17507 0.175264 0.175435 0.175744 0.175861 0.176181 0.17637 
0.207533 0.207147 0.204228 0.19985 0.19552 0.191311 0.187365 0.18389 0.181365 
0.180053 0.1792 0.178558 0.178192 0.177854 0.177698 0.177647 0.17762 0.177765 
0.177843 0.178141 0.178257 0.178658 0.17882 0.178991 0.16908 0.167498 0.165404 
0.162174 0.158794 0.155986 0.154002 0.153954 0.155087 0.157007 0.158786 0.16048 
0.161852 0.163205 0.164316 0.164734 0.165131 0.165109 0.165141 0.16498 0.164875 
0.164706 0.16462 0.164251 0.170975 0.172439 0.171009 0.168359 0.165993 0.163337 
0.161362 0.160601 0.160265 0.159756 0.159532 0.159193 0.159418 0.159546 0.159905 
0.160148 0.160459 0.160542 0.160697 0.160713 0.160793 0.1608 0.160781 0.160879 
0.173445 0.172981 0.171421 0.169435 0.167959 0.166023 0.1636 0.161203 0.16004 
0.159399 0.159339 0.159347 0.159588 0.159519 0.159699 0.159681 0.159778 0.159866 
0.159892 0.160104 0.160096 0.160295 0.160409 0.160329 0.175676 0.174674 0.172908 
0.171355 0.170021 0.167768 0.164774 0.162061 0.160641 0.160003 0.159917 0.159845 
0.159778 0.159783 0.159731 0.15971 0.159786 0.159734 0.160028 0.159943 0.160369 
0.160314 0.160521 0.16075 0.179144 0.177478 0.175282 0.173537 0.171601 0.168714 
0.165693 0.163159 0.161719 0.160801 0.16036 0.159944 0.159853 0.159696 0.159637 
0.159716 0.159638 0.160028 0.159916 0.160431 0.16039 0.160765 0.160956 0.160838 
0.182974 0.18083 0.17773 0.175134 0.172523 0.16964 0.166891 0.164597 0.162919 
0.16168 0.160837 0.160374 0.160064 0.159865 0.159902 0.159774 0.160191 0.160057 
0.160616 0.160578 0.161034 0.161109 0.161147 0.161231 0.187055 0.183791 0.179751 
0.176195 0.173442 0.17086 0.168437 0.166064 0.164149 0.162582 0.161617 0.160947 
0.160567 0.160456 0.160292 0.160664 0.16055 0.161094 0.16111 0.161487 0.161612 
0.161652 0.161729 0.161392 0.189925 0.186097 0.181524 0.177494 0.174759 0.1723 
0.169878 0.167501 0.165256 0.163648 0.162511 0.161842 0.161484 0.16125 0.161479 
0.161401 0.161851 0.161898 0.162166 0.162316 0.162282 0.162418 0.162234 0.162187 
0.19227 0.188129 0.183753 0.179524 0.176533 0.173818 0.171182 0.168614 0.166474 
0.164767 0.163739 0.163048 0.16268 0.162691 0.162638 0.162936 0.163023 0.163171 
0.163338 0.163268 0.163382 0.163296 0.163323 0.163076 0.193548 0.190241 0.18633 
0.182143 0.178765 0.175425 0.172287 0.169902 0.167636 0.166193 0.165128 0.164565 
0.164294 0.164225 0.164328 0.164423 0.164443 0.164582 0.164494 0.164584 0.164557 
0.164622 0.16462 0.164682 0.195391 0.192515 0.189456 0.185389 0.181401 0.177186 
0.173826 0.171189 0.169128 0.167681 0.166856 0.16628 0.166121 0.166013 0.166106 
0.166007 0.166127 0.16604 0.166123 0.166166 0.166263 0.16638 0.166536 0.16634 
0.197174 0.195481 0.192864 0.188985 0.184355 0.179667 0.175764 0.172958 0.170845 
0.169583 0.168689 0.168313 0.167991 0.168008 0.16779 0.167857 0.167738 0.167812 
0.167877 0.168009 0.168199 0.168311 0.168432 0.168618 0.20007 0.198612 0.196457 
0.192578 0.18788 0.182795 0.178555 0.175269 0.17299 0.171627 0.170837 0.170268 
0.17009 0.169746 0.169709 0.169554 0.169626 0.169713 0.169869 0.170088 0.170237 
0.170478 0.170718 0.170591 0.202508 0.201609 0.199309 0.195583 0.190728 0.185752 
0.181142 0.177773 0.175443 0.174053 0.173118 0.172612 0.172077 0.171842 0.171585 
0.171547 0.17159 0.171671 0.171899 0.17201 0.172386 0.172461 0.172769 0.173025 
0.205942 0.204763 0.202152 0.198406 0.193888 0.18902 0.184638 0.180969 0.178391 
0.176755 0.17573 0.174939 0.174395 0.173882 0.173647 0.173546 0.173505 0.173686 
0.173763 0.17414 0.174249 0.174688 0.174953 0.174944 0.208296 0.206421 0.203632 
0.199645 0.195319 0.190756 0.186677 0.1833 0.180957 0.179556 0.178551 0.177801 
0.177063 0.176503 0.176124 0.175851 0.175825 0.175786 0.176019 0.176122 0.176575 
0.176722 0.17716 0.177494 0.168734 0.16762 0.165648 0.162275 0.158751 0.155342 
0.153166 0.15279 0.154037 0.155717 0.158243 0.16006 0.16212 0.163409 0.164722 
0.165323 0.16555 0.165524 0.165337 0.165088 0.164867 0.164661 0.164437 0.164252 
0.170937 0.172794 0.171694 0.169228 0.166678 0.163952 0.161873 0.160995 0.160647 
0.16021 0.159605 0.159715 0.159207 0.159547 0.159444 0.159952 0.159961 0.160303 
0.160192 0.160421 0.160276 0.160512 0.160361 0.1603 0.172765 0.172559 0.17126 
0.16941 0.168 0.166047 0.163592 0.161103 0.159753 0.158961 0.158928 0.158914 
0.159107 0.159198 0.159379 0.159328 0.159514 0.159429 0.159722 0.159602 0.160006 
0.159853 0.160052 0.159959 0.175493 0.173901 0.172196 0.170944 0.169923 0.16798 
0.164884 0.162135 0.160178 0.159609 0.159131 0.159442 0.159251 0.15952 0.159302 
0.15952 0.159348 0.159706 0.159519 0.160082 0.159879 0.160356 0.160368 0.160534 
0.178484 0.176506 0.174394 0.173044 0.17174 0.169154 0.166144 0.163443 0.161708 
0.160379 0.160005 0.159405 0.15945 0.159078 0.159259 0.159021 0.15947 0.159219 
0.15993 0.159671 0.160439 0.160188 0.160638 0.160573 0.182881 0.180046 0.177097 
0.174987 0.172691 0.170156 0.167343 0.165163 0.162901 0.161646 0.160378 0.160039 
0.159333 0.159422 0.159062 0.159602 0.159299 0.160149 0.159863 0.16074 0.16052 
0.161096 0.161061 0.161022 0.187033 0.18337 0.179661 0.176097 0.173642 0.171103 
0.169063 0.16646 0.164396 0.162363 0.161416 0.16027 0.160127 0.159539 0.160087 
0.159724 0.160641 0.160343 0.161247 0.161049 0.161596 0.161537 0.161542 0.16138 
0.190999 0.186456 0.181705 0.177547 0.174656 0.172635 0.170185 0.167932 0.165251 
0.163642 0.161981 0.161487 0.160588 0.161012 0.160573 0.161499 0.16117 0.162025 
0.161872 0.162297 0.16226 0.162283 0.162174 0.1619 0.193059 0.188556 0.184004 
0.17927 0.176592 0.173742 0.171494 0.168649 0.166537 0.164416 0.163492 0.162258 
0.162416 0.161854 0.162702 0.162342 0.163082 0.162974 0.163255 0.163248 0.163213 
0.163174 0.163044 0.162793 0.194877 0.190866 0.186582 0.182165 0.178489 0.175462 
0.172268 0.169875 0.16735 0.166039 0.164507 0.16432 0.163549 0.16421 0.163833 
0.164413 0.164348 0.164511 0.164498 0.16448 0.164398 0.164449 0.16433 0.164232 
0.196091 0.19328 0.190036 0.185477 0.181536 0.177111 0.173772 0.170867 0.169019 
0.16722 0.166673 0.165662 0.166018 0.165601 0.165987 0.165927 0.165996 0.165954 
0.165959 0.165875 0.166002 0.165937 0.166041 0.1659 0.198355 0.196228 0.193866 
0.189841 0.184726 0.179855 0.175698 0.172846 0.170486 0.169497 0.168238 0.1682 
0.167646 0.167827 0.16771 0.167698 0.167633 0.16767 0.167622 0.167839 0.167864 
0.168114 0.168149 0.168132 0.200542 0.199622 0.197833 0.193902 0.188975 0.183257 
0.178897 0.175215 0.173108 0.171374 0.170819 0.169984 0.16989 0.169602 0.169451 
0.169306 0.169381 0.169369 0.169598 0.169672 0.170008 0.170049 0.17029 0.170266 
0.203775 0.202931 0.20101 0.197455 0.192353 0.186924 0.181782 0.17826 0.175458 
0.174192 0.172925 0.17246 0.171874 0.171544 0.17126 0.171287 0.171213 0.171481 
0.171543 0.171966 0.17201 0.172464 0.172586 0.172659 0.206726 0.206256 0.204112 
0.200529 0.195928 0.190637 0.185754 0.181465 0.178723 0.176704 0.175643 0.174596 
0.173988 0.173343 0.173201 0.172946 0.17318 0.173092 0.173595 0.173577 0.174217 
0.174143 0.174699 0.174771 0.209714 0.208502 0.205875 0.202199 0.19769 0.19292 
0.18795 0.184316 0.181204 0.179401 0.178087 0.17712 0.176158 0.175642 0.175044 
0.175163 0.174908 0.1754 0.175353 0.176066 0.176023 0.176777 0.1769 0.177059 
0.168987 0.167796 0.165822 0.162284 0.158338 0.154428 0.151904 0.151487 0.152469 
0.154311 0.156186 0.158818 0.160576 0.162399 0.16334 0.164138 0.164552 0.16458 
0.16448 0.164271 0.164031 0.163943 0.163647 0.163535 0.170358 0.172823 0.171959 
0.169691 0.166803 0.164246 0.16165 0.160888 0.160554 0.160642 0.160285 0.15976 
0.159787 0.159324 0.159503 0.159189 0.159542 0.159467 0.159737 0.15961 0.159821 
0.159696 0.159762 0.159584 0.17293 0.17248 0.1715 0.169815 0.168209 0.166312 
0.163656 0.161138 0.15981 0.159141 0.159025 0.159121 0.159107 0.159189 0.159243 
0.159239 0.159153 0.159242 0.159128 0.159399 0.159253 0.159593 0.15948 0.15957 
0.175029 0.173231 0.171799 0.170714 0.169908 0.168168 0.165196 0.162163 0.160473 
0.15953 0.159556 0.159314 0.15955 0.159363 0.159469 0.159246 0.159384 0.159167 
0.159505 0.159275 0.159846 0.159583 0.159972 0.159815 0.178449 0.175498 0.173413 
0.172494 0.171574 0.1696 0.16653 0.164001 0.161986 0.161029 0.160065 0.159833 
0.159302 0.159314 0.159014 0.159171 0.158937 0.159405 0.159138 0.159884 0.159617 
0.160288 0.160286 0.160495 0.182458 0.178826 0.176252 0.174289 0.172854 0.170548 
0.168173 0.16577 0.163895 0.162012 0.161067 0.159933 0.159717 0.159145 0.159308 
0.159001 0.159575 0.159255 0.160124 0.159828 0.160736 0.160457 0.16093 0.160797 
0.187372 0.182811 0.179127 0.176044 0.17354 0.171697 0.169569 0.167609 0.165051 
0.163315 0.161503 0.160846 0.159854 0.159937 0.159455 0.160121 0.159732 0.160704 
0.16039 0.161323 0.161088 0.161575 0.161481 0.161302 0.191282 0.186058 0.182021 
0.177345 0.17486 0.172684 0.171106 0.168539 0.166373 0.163936 0.16276 0.161268 
0.161148 0.160395 0.161076 0.160603 0.161605 0.161281 0.162148 0.161968 0.162314 
0.162272 0.162181 0.161961 0.194527 0.189258 0.184326 0.17955 0.176241 0.174264 
0.1717 0.169615 0.166932 0.165312 0.163395 0.162963 0.16186 0.162445 0.161874 
0.162838 0.162487 0.163208 0.163083 0.163288 0.163244 0.163165 0.163013 0.162774 
0.195781 0.191462 0.187319 0.181989 0.17887 0.175362 0.172799 0.170145 0.168221 
0.166071 0.165284 0.163854 0.164224 0.163519 0.164353 0.163997 0.164518 0.164463 
0.164527 0.164489 0.164402 0.164317 0.16424 0.163983 0.197715 0.19453 0.190701 
0.186105 0.181494 0.177509 0.173926 0.171486 0.169136 0.16804 0.166369 0.166416 
0.165505 0.166115 0.165762 0.166068 0.166056 0.166033 0.165973 0.165916 0.165823 
0.165913 0.165811 0.165749 0.199233 0.197388 0.195131 0.190507 0.185586 0.180017 
0.176228 0.17312 0.171298 0.169441 0.169043 0.167896 0.168152 0.167743 0.167843 
0.167816 0.16772 0.167644 0.167622 0.167584 0.167742 0.167744 0.167834 0.167723 
0.202138 0.201049 0.199185 0.195643 0.189967 0.18431 0.179202 0.176052 0.173376 
0.172271 0.170788 0.170559 0.169922 0.169776 0.169617 0.169417 0.169316 0.169344 
0.169361 0.169555 0.169623 0.16989 0.16995 0.169976 0.204606 0.204175 0.202968 
0.19936 0.194414 0.188116 0.183114 0.178955 0.176596 0.17448 0.173626 0.172585 
0.172124 0.171717 0.171354 0.171195 0.171127 0.17113 0.171318 0.171428 0.171789 
0.171845 0.172185 0.172157 0.208506 0.208069 0.20621 0.20306 0.198168 0.192822 
0.187124 0.18293 0.17946 0.177441 0.1758 0.174925 0.174037 0.173359 0.172974 
0.172785 0.172685 0.172895 0.172886 0.173374 0.173376 0.173956 0.174113 0.174272 
0.211 0.210396 0.208378 0.204946 0.200596 0.195215 0.190122 0.185556 0.182353 
0.179804 0.178255 0.176909 0.175975 0.175068 0.174692 0.174254 0.17446 0.174299 
0.174883 0.174843 0.175599 0.17551 0.176261 0.176395 0.168837 0.167924 0.166028 
0.162295 0.157994 0.153649 0.150776 0.149892 0.15082 0.151958 0.153721 0.155468 
0.157942 0.159657 0.161263 0.161991 0.162409 0.162664 0.162707 0.162625 0.162513 
0.162299 0.162155 0.162018 0.170539 0.172739 0.171944 0.169564 0.166939 0.163817 
0.161374 0.159847 0.159932 0.160126 0.160483 0.160534 0.160231 0.160277 0.159637 
0.159689 0.159174 0.159355 0.159147 0.159355 0.159207 0.159437 0.159247 0.159239 
0.17233 0.172573 0.171861 0.170406 0.168789 0.16658 0.164066 0.161239 0.159667 
0.158884 0.15905 0.159027 0.159246 0.159229 0.159137 0.159114 0.159064 0.158911 
0.158999 0.158814 0.159105 0.15891 0.159058 0.158951 0.175154 0.173055 0.17185 
0.17098 0.170174 0.168566 0.165597 0.162566 0.16039 0.159688 0.159122 0.159466 
0.159293 0.159487 0.159253 0.159305 0.15905 0.159182 0.158925 0.159335 0.159069 
0.159528 0.159471 0.159643 0.178143 0.174574 0.172716 0.171971 0.171556 0.169853 
0.167103 0.164306 0.162474 0.160984 0.160506 0.159712 0.159584 0.159153 0.159108 
0.158812 0.158942 0.158643 0.159168 0.158815 0.159607 0.159238 0.159851 0.159734 
0.182536 0.177693 0.175085 0.173673 0.172587 0.170967 0.168694 0.166702 0.164377 
0.162944 0.161205 0.160537 0.159573 0.159397 0.158956 0.159122 0.158791 0.159448 
0.159044 0.159999 0.159614 0.160424 0.16038 0.160504 0.187101 0.181605 0.17855 
0.175341 0.173691 0.17188 0.170563 0.168387 0.166345 0.163826 0.162427 0.160794 
0.160315 0.15953 0.15968 0.159252 0.159975 0.159537 0.160561 0.160146 0.161089 
0.160765 0.161187 0.161034 0.191815 0.185917 0.18165 0.177513 0.17465 0.173288 
0.171528 0.169874 0.167096 0.165125 0.16288 0.16197 0.160676 0.160766 0.160155 
0.160929 0.160457 0.161507 0.161101 0.161939 0.161685 0.162013 0.161897 0.161688 
0.195046 0.189046 0.185097 0.17958 0.176795 0.174303 0.172706 0.170241 0.168174 
0.165642 0.164286 0.16253 0.162402 0.161513 0.16226 0.161735 0.162729 0.16234 
0.163006 0.162829 0.162999 0.162938 0.162835 0.162589 0.197654 0.192651 0.18807 
0.182981 0.179008 0.176205 0.173323 0.171195 0.168667 0.167069 0.165005 0.164568 
0.163349 0.163982 0.16339 0.164245 0.163904 0.164353 0.16425 0.16431 0.16425 
0.164162 0.164044 0.163838 0.199069 0.195619 0.192273 0.186767 0.182745 0.17809 
0.174912 0.17204 0.170147 0.168002 0.167243 0.16567 0.166068 0.165341 0.165974 
0.16568 0.165899 0.165854 0.165823 0.165766 0.165682 0.165663 0.165606 0.165434 
0.201257 0.199254 0.196475 0.192039 0.186589 0.181357 0.176741 0.174139 0.171617 
0.170446 0.168621 0.168606 0.167624 0.167944 0.167666 0.167696 0.167671 0.167572 
0.167521 0.167505 0.167523 0.167608 0.167619 0.167522 0.203404 0.202504 0.201183 
0.197129 0.191683 0.185477 0.180663 0.176792 0.174573 0.172376 0.17165 0.170319 
0.170178 0.169757 0.169543 0.169455 0.169271 0.169226 0.169237 0.169281 0.169423 
0.169495 0.169615 0.169565 0.206629 0.206114 0.204927 0.201876 0.196354 0.190196 
0.184384 0.18057 0.17732 0.175637 0.173733 0.17304 0.172214 0.171714 0.171473 
0.171165 0.171128 0.171088 0.171144 0.171336 0.171455 0.171779 0.171879 0.171967 
0.209921 0.209882 0.208699 0.205699 0.201214 0.195123 0.189363 0.184297 0.180837 
0.178019 0.176346 0.17493 0.174105 0.173458 0.1729 0.17269 0.172557 0.172544 
0.172752 0.172814 0.17327 0.173296 0.173775 0.173785 0.213071 0.212628 0.210827 
0.207867 0.20352 0.198217 0.192195 0.187493 0.183371 0.180634 0.178379 0.17703 
0.175847 0.175006 0.174264 0.174093 0.173768 0.174108 0.174005 0.174692 0.174619 
0.175387 0.175551 0.17576 0.169398 0.168236 0.166079 0.162153 0.157481 0.152743 
0.149416 0.148377 0.148802 0.14998 0.150977 0.152492 0.153959 0.155758 0.157084 
0.158175 0.158672 0.159096 0.159105 0.159333 0.159229 0.159483 0.159181 0.159179 
0.170241 0.172431 0.171663 0.169312 0.166452 0.163521 0.160372 0.159055 0.158717 
0.15914 0.159452 0.160228 0.160478 0.16045 0.160284 0.159688 0.159511 0.158913 
0.158871 0.158526 0.158602 0.15845 0.158456 0.158335 0.172692 0.172433 0.172031 
0.17078 0.168925 0.166813 0.164047 0.161639 0.159668 0.158863 0.158463 0.158939 
0.158921 0.159161 0.159064 0.158985 0.158869 0.158813 0.158652 0.158765 0.158571 
0.158826 0.158719 0.158796 0.1749 0.172921 0.172054 0.171385 0.170604 0.168948 
0.16632 0.1631 0.160975 0.159497 0.159355 0.158858 0.159261 0.159131 0.15926 
0.159039 0.159058 0.158806 0.159005 0.158716 0.159193 0.158904 0.159256 0.15917 
0.178195 0.174124 0.172449 0.17194 0.171612 0.170428 0.167845 0.165074 0.162812 
0.16161 0.160368 0.160098 0.159466 0.159388 0.159049 0.158966 0.158694 0.158892 
0.158564 0.159229 0.158868 0.159531 0.159559 0.159771 0.182157 0.176496 0.174127 
0.172919 0.172559 0.171309 0.16957 0.167309 0.16549 0.163306 0.162231 0.160682 
0.160218 0.159461 0.159279 0.158885 0.159058 0.158659 0.159383 0.15892 0.159869 
0.159473 0.160195 0.160106 0.187021 0.180479 0.177244 0.174787 0.173355 0.172501 
0.171126 0.169743 0.167176 0.165322 0.162945 0.161864 0.160485 0.160113 0.159461 
0.15964 0.15917 0.15999 0.159453 0.160521 0.160078 0.160861 0.160801 0.160856 
0.191468 0.184666 0.181488 0.176994 0.174988 0.173519 0.172795 0.170761 0.168786 
0.16601 0.164319 0.162289 0.161564 0.160523 0.16067 0.160086 0.160902 0.160336 
0.161389 0.160894 0.161726 0.161447 0.161745 0.16169 0.195784 0.189403 0.185117 
0.180342 0.176853 0.175332 0.173449 0.17187 0.169259 0.167303 0.164836 0.163698 
0.162187 0.162174 0.161442 0.162217 0.161644 0.162626 0.162139 0.162786 0.162571 
0.162755 0.162705 0.162519 0.198678 0.193096 0.189521 0.1837 0.180379 0.177057 
0.174715 0.172288 0.170348 0.167862 0.166416 0.164505 0.164242 0.163244 0.16392 
0.163335 0.164144 0.163716 0.16414 0.164002 0.164066 0.164073 0.163946 0.163871 
0.201375 0.197637 0.193642 0.188586 0.183794 0.179979 0.175996 0.173721 0.171169 
0.169598 0.167442 0.166856 0.165506 0.165979 0.165338 0.165903 0.165561 0.165773 
0.165679 0.16567 0.165675 0.165587 0.165609 0.165401 0.203071 0.201005 0.198677 
0.193391 0.188403 0.182981 0.17879 0.175347 0.173317 0.171014 0.17006 0.168372 
0.168424 0.167629 0.16788 0.167607 0.167622 0.167547 0.167478 0.167484 0.167437 
0.167508 0.167485 0.167441 0.205763 0.204949 0.203087 0.199138 0.193288 0.187451 