# vtk DataFile Version 5.1
vtk output
ASCII
DATASET POLYDATA
POINTS 2640 float
0 2.85 -0.5 0 2.853 -0.503 0 2.8561 -0.506095 
0 2.85938 -0.509384 0 2.86297 -0.512971 0 2.86697 -0.516969 
0 2.87151 -0.521506 0 2.87673 -0.526726 0 2.8828 -0.532795 
0 2.8899 -0.539904 0 2.89828 -0.548281 0 2.90819 -0.55819 
0 2.91995 -0.569947 0 2.93392 -0.583924 0 2.95057 -0.600565 
0 2.9704 -0.6204 0 2.99406 -0.644057 0 3 -0.65 
0.00160117 2.8484 -0.5 0.00159917 2.8514 -0.503 0.0015971 2.8545 -0.506095 
0.00159491 2.85779 -0.509384 0.00159251 2.86138 -0.512971 0.00158984 2.86538 -0.516969 
0.00158681 2.86992 -0.521506 0.00158333 2.87514 -0.526726 0.00157927 2.88122 -0.532795 
0.00157453 2.88833 -0.539904 0.00156893 2.89671 -0.548281 0.00156231 2.90663 -0.55819 
0.00155446 2.91839 -0.569947 0.00154513 2.93238 -0.583924 0.00153402 2.94903 -0.600565 
0.00152077 2.96888 -0.6204 0.00150497 2.99255 -0.644057 0.0015 3 -0.6515 
0.00332708 2.84667 -0.5 0.00332293 2.84968 -0.503 0.00331864 2.85278 -0.506095 
0.00331409 2.85607 -0.509384 0.00330913 2.85966 -0.512971 0.00330359 2.86367 -0.516969 
0.00329731 2.86821 -0.521506 0.00329009 2.87344 -0.526726 0.00328169 2.87951 -0.532795 
0.00327184 2.88663 -0.539904 0.00326025 2.89502 -0.548281 0.00324653 2.90494 -0.55819 
0.00323026 2.91672 -0.569947 0.00321091 2.93071 -0.583924 0.00318788 2.94738 -0.600565 
0.00316042 2.96724 -0.6204 0.00312768 2.99093 -0.644057 0.00311514 3 -0.653115 
0.00518729 2.84481 -0.5 0.00518083 2.84782 -0.503 0.00517417 2.85092 -0.506095 
0.00516709 2.85422 -0.509384 0.00515937 2.85781 -0.512971 0.00515076 2.86182 -0.516969 
0.005141 2.86636 -0.521506 0.00512976 2.8716 -0.526726 0.0051167 2.87768 -0.532795 
0.0051014 2.8848 -0.539904 0.00508337 2.8932 -0.548281 0.00506204 2.90313 -0.55819 
0.00503673 2.91491 -0.569947 0.00500665 2.92892 -0.583924 0.00497083 2.94559 -0.600565 
0.00492814 2.96547 -0.6204 0.00487722 2.98918 -0.644057 0.00485398 3 -0.654854 
0.00719207 2.84281 -0.5 0.00718314 2.84582 -0.503 0.00717393 2.84892 -0.506095 
0.00716414 2.85222 -0.509384 0.00715347 2.85582 -0.512971 0.00714157 2.85983 -0.516969 
0.00712807 2.86438 -0.521506 0.00711253 2.86961 -0.526726 0.00709447 2.8757 -0.532795 
0.00707332 2.88283 -0.539904 0.00704839 2.89123 -0.548281 0.0070189 2.90117 -0.55819 
0.00698391 2.91296 -0.569947 0.00694232 2.92698 -0.583924 0.0068928 2.94367 -0.600565 
0.00683377 2.96357 -0.6204 0.00676337 2.98729 -0.644057 0.00672567 3 -0.656726 
0.00935247 2.84065 -0.5 0.0093409 2.84366 -0.503 0.00932896 2.84677 -0.506095 
0.00931627 2.85007 -0.509384 0.00930243 2.85367 -0.512971 0.009287 2.85768 -0.516969 
0.00926949 2.86224 -0.521506 0.00924935 2.86748 -0.526726 0.00922594 2.87357 -0.532795 
0.00919851 2.88071 -0.539904 0.00916619 2.88911 -0.548281 0.00912795 2.89906 -0.55819 
0.00908259 2.91086 -0.569947 0.00902866 2.9249 -0.583924 0.00896445 2.9416 -0.600565 
0.00888792 2.96151 -0.6204 0.00879664 2.98526 -0.644057 0.00873999 3 -0.65874 
0.0116803 2.83832 -0.5 0.0116658 2.84133 -0.503 0.011651 2.84444 -0.506095 
0.0116352 2.84775 -0.509384 0.0116179 2.85135 -0.512971 0.0115987 2.85537 -0.516969 
0.0115769 2.85993 -0.521506 0.0115519 2.86517 -0.526726 0.0115227 2.87127 -0.532795 
0.0114886 2.87842 -0.539904 0.0114483 2.88683 -0.548281 0.0114007 2.89679 -0.55819 
0.0113442 2.9086 -0.569947 0.0112771 2.92265 -0.583924 0.0111972 2.93937 -0.600565 
0.0111019 2.9593 -0.6204 0.0109882 2.98307 -0.644057 0.0109073 3 -0.660907 
0.0141883 2.83581 -0.5 0.0141708 2.83883 -0.503 0.0141528 2.84194 -0.506095 
0.0141337 2.84525 -0.509384 0.0141128 2.84886 -0.512971 0.0140896 2.85288 -0.516969 
0.0140632 2.85744 -0.521506 0.0140328 2.86269 -0.526726 0.0139975 2.8688 -0.532795 
0.0139562 2.87595 -0.539904 0.0139075 2.88437 -0.548281 0.0138498 2.89434 -0.55819 
0.0137815 2.90617 -0.569947 0.0137002 2.92022 -0.583924 0.0136034 2.93696 -0.600565 
0.013488 2.95691 -0.6204 0.0133505 2.98071 -0.644057 0.0132389 3 -0.663239 
0.01689 2.83311 -0.5 0.0168693 2.83613 -0.503 0.0168479 2.83925 -0.506095 
0.0168252 2.84256 -0.509384 0.0168005 2.84617 -0.512971 0.0167729 2.8502 -0.516969 
0.0167416 2.85476 -0.521506 0.0167056 2.86002 -0.526726 0.0166637 2.86613 -0.532795 
0.0166147 2.87329 -0.539904 0.0165569 2.88172 -0.548281 0.0164885 2.8917 -0.55819 
0.0164074 2.90354 -0.569947 0.016311 2.91761 -0.583924 0.0161962 2.93437 -0.600565 
0.0160593 2.95434 -0.6204 0.0158961 2.97816 -0.644057 0.0157465 3 -0.665746 
0.0197999 2.8302 -0.5 0.0197758 2.83322 -0.503 0.0197508 2.83634 -0.506095 
0.0197243 2.83966 -0.509384 0.0196954 2.84328 -0.512971 0.0196632 2.84731 -0.516969 
0.0196267 2.85188 -0.521506 0.0195846 2.85714 -0.526726 0.0195357 2.86326 -0.532795 
0.0194784 2.87043 -0.539904 0.0194109 2.87887 -0.548281 0.0193311 2.88886 -0.55819 
0.0192363 2.90071 -0.569947 0.0191237 2.9148 -0.583924 0.0189896 2.93158 -0.600565 
0.0188298 2.95157 -0.6204 0.0186392 2.97542 -0.644057 0.0184427 3 -0.668443 
0.0229339 2.82707 -0.5 0.022906 2.83009 -0.503 0.0228772 2.83322 -0.506095 
0.0228466 2.83654 -0.509384 0.0228133 2.84016 -0.512971 0.0227761 2.84419 -0.516969 
0.0227339 2.84877 -0.521506 0.0226854 2.85404 -0.526726 0.022629 2.86017 -0.532795 
0.0225629 2.86734 -0.539904 0.022485 2.8758 -0.548281 0.0223929 2.8858 -0.55819 
0.0222836 2.89766 -0.569947 0.0221537 2.91177 -0.583924 0.021999 2.92857 -0.600565 
0.0218146 2.94859 -0.6204 0.0215946 2.97246 -0.644057 0.021341 3 -0.671341 
0.022287 3 -0.672287 0.0263083 2.82369 -0.5 0.0262765 2.82672 -0.503 
0.0262436 2.82985 -0.506095 0.0262087 2.83318 -0.509384 0.0261706 2.8368 -0.512971 
0.0261281 2.84084 -0.516969 0.0260799 2.84543 -0.521506 0.0260245 2.8507 -0.526726 
0.0259601 2.85683 -0.532795 0.0258846 2.86402 -0.539904 0.0257956 2.87249 -0.548281 
0.0256904 2.8825 -0.55819 0.0255655 2.89438 -0.569947 0.0254171 2.90851 -0.583924 
0.0252403 2.92532 -0.600565 0.0250297 2.94537 -0.6204 0.0247784 2.96928 -0.644057 
0.0244786 2.99781 -0.672287 0.0244556 3 -0.674456 0.0299413 2.82006 -0.5 
0.0299052 2.82309 -0.503 0.0298679 2.82623 -0.506095 0.0298283 2.82956 -0.509384 
0.0297852 2.83319 -0.512971 0.0297371 2.83723 -0.516969 0.0296825 2.84182 -0.521506 
0.0296197 2.84711 -0.526726 0.0295466 2.85325 -0.532795 0.0294611 2.86044 -0.539904 
0.0293603 2.86892 -0.548281 0.029241 2.87895 -0.55819 0.0290996 2.89085 -0.569947 
0.0289314 2.90499 -0.583924 0.0287311 2.92183 -0.600565 0.0284924 2.94191 -0.6204 
0.0282078 2.96585 -0.644057 0.0278681 2.99442 -0.672287 0.0278017 3 -0.677802 
0.0338515 2.81615 -0.5 0.0338109 2.81919 -0.503 0.033769 2.82233 -0.506095 
0.0337245 2.82566 -0.509384 0.0336759 2.8293 -0.512971 0.0336218 2.83335 -0.516969 
0.0335603 2.83795 -0.521506 0.0334896 2.84324 -0.526726 0.0334074 2.84939 -0.532795 
0.0333112 2.85659 -0.539904 0.0331977 2.86508 -0.548281 0.0330635 2.87513 -0.55819 
0.0329043 2.88704 -0.569947 0.032715 2.90121 -0.583924 0.0324897 2.91808 -0.600565 
0.0322211 2.93818 -0.6204 0.0319007 2.96216 -0.644057 0.0315184 2.99077 -0.672287 
0.0313951 3 -0.681395 0.0380596 2.81194 -0.5 0.0380141 2.81499 -0.503 
0.0379672 2.81813 -0.506095 0.0379174 2.82147 -0.509384 0.0378631 2.82511 -0.512971 
0.0378025 2.82917 -0.516969 0.0377337 2.83377 -0.521506 0.0376547 2.83907 -0.526726 
0.0375627 2.84523 -0.532795 0.037455 2.85245 -0.539904 0.0373281 2.86095 -0.548281 
0.037178 2.87101 -0.55819 0.0369998 2.88295 -0.569947 0.0367881 2.89714 -0.583924 
0.036536 2.91403 -0.600565 0.0362355 2.93416 -0.6204 0.035877 2.95818 -0.644057 
0.0354493 2.98684 -0.672287 0.0352529 3 -0.685253 0.0425868 2.80741 -0.5 
0.0425362 2.81046 -0.503 0.042484 2.81361 -0.506095 0.0424285 2.81696 -0.509384 
0.042368 2.8206 -0.512971 0.0423006 2.82467 -0.516969 0.0422241 2.82928 -0.521506 
0.0421361 2.83459 -0.526726 0.0420337 2.84076 -0.532795 0.0419138 2.84799 -0.539904 
0.0417725 2.85651 -0.548281 0.0416054 2.86658 -0.55819 0.0414072 2.87854 -0.569947 
0.0411715 2.89275 -0.583924 0.0408908 2.90967 -0.600565 0.0405563 2.92984 -0.6204 
0.0401574 2.9539 -0.644057 0.0396813 2.98261 -0.672287 0.0393928 3 -0.689393 
0.0474562 2.80254 -0.5 0.0474001 2.8056 -0.503 0.0473423 2.80875 -0.506095 
0.0472808 2.8121 -0.509384 0.0472138 2.81576 -0.512971 0.047139 2.81983 -0.516969 
0.0470543 2.82445 -0.521506 0.0469567 2.82977 -0.526726 0.0468433 2.83595 -0.532795 
0.0467104 2.84319 -0.539904 0.0465539 2.85173 -0.548281 0.0463687 2.86182 -0.55819 
0.046149 2.8738 -0.569947 0.0458878 2.88804 -0.583924 0.0455768 2.90499 -0.600565 
0.0452061 2.92519 -0.6204 0.044764 2.94929 -0.644057 0.0442364 2.97805 -0.672287 
0.0438337 3 -0.693834 0.0526922 2.79731 -0.5 0.0526303 2.80037 -0.503 
0.0525665 2.80353 -0.506095 0.0524986 2.80689 -0.509384 0.0524246 2.81055 -0.512971 
0.0523421 2.81463 -0.516969 0.0522485 2.81926 -0.521506 0.0521409 2.82459 -0.526726 
0.0520157 2.83078 -0.532795 0.051869 2.83804 -0.539904 0.0516962 2.84658 -0.548281 
0.0514918 2.8567 -0.55819 0.0512492 2.8687 -0.569947 0.0509609 2.88296 -0.583924 
0.0506176 2.89995 -0.600565 0.0502084 2.92019 -0.6204 0.0497204 2.94434 -0.644057 
0.049138 2.97315 -0.672287 0.0485953 3 -0.698595 0.0583206 2.79168 -0.5 
0.0582525 2.79475 -0.503 0.0581823 2.79791 -0.506095 0.0581077 2.80128 -0.509384 
0.0580263 2.80494 -0.512971 0.0579356 2.80903 -0.516969 0.0578326 2.81367 -0.521506 
0.0577142 2.81901 -0.526726 0.0575765 2.82522 -0.532795 0.0574151 2.83249 -0.539904 
0.0572251 2.84106 -0.548281 0.0570002 2.85119 -0.55819 0.0567334 2.86321 -0.569947 
0.0564163 2.87751 -0.583924 0.0560387 2.89453 -0.600565 0.0555886 2.91481 -0.6204 
0.0550518 2.93901 -0.644057 0.0544112 2.96788 -0.672287 0.0536984 3 -0.703698 
0.055987 3 -0.705987 0.0643687 2.78563 -0.5 0.0642941 2.78871 -0.503 
0.0642171 2.79188 -0.506095 0.0641352 2.79525 -0.509384 0.064046 2.79892 -0.512971 
0.0639465 2.80302 -0.516969 0.0638336 2.80767 -0.521506 0.0637038 2.81302 -0.526726 
0.0635528 2.81924 -0.532795 0.0633759 2.82653 -0.539904 0.0631675 2.83511 -0.548281 
0.062921 2.84527 -0.55819 0.0626284 2.85732 -0.569947 0.0622807 2.87164 -0.583924 
[...]
POINT_DATA 2640
FIELD FieldData 5
pressure 1 2640 float
0.178573 0.178573 0.178573 0.178573 0.178573 0.178573 0.178573 0.178573 0.178573 
0.178573 0.178573 0.178573 0.178573 0.178573 0.178573 0.178573 0.178573 0.178573 
0.178573 0.178573 0.178573 0.178573 0.178573 0.178573 0.178573 0.178573 0.178573 
0.178573 0.178573 0.178573 0.178573 0.178573 0.178573 0.178573 0.178573 0.178573 
0.178573 0.178573 0.178573 0.178573 0.178573 0.178573 0.178573 0.178573 0.178573 
0.178573 0.178573 0.178573 0.178573 0.178573 0.178573 0.178573 0.178573 0.178573 
0.178573 0.178573 0.178573 0.178573 0.178573 0.178573 0.178573 0.178573 0.178573 
0.178573 0.178573 0.178573 0.178573 0.178573 0.178573 0.178573 0.178573 0.178573 
0.178573 0.178573 0.178573 0.178573 0.178573 0.178573 0.178573 0.178573 0.178573 
0.178573 0.178573 0.178573 0.178573 0.178573 0.178573 0.178573 0.178573 0.178573 
0.178573 0.178573 0.178573 0.178573 0.178573 0.178573 0.178573 0.178573 0.178573 
0.178573 0.178573 0.178573 0.178573 0.178573 0.178573 0.178573 0.178573 0.178573 
0.178573 0.178573 0.178573 0.178573 0.178573 0.178573 0.178573 0.178573 0.178573 
0.178573 0.178573 0.178573 0.178573 0.178573 0.178573 0.178573 0.178573 0.178573 
0.178573 0.178573 0.178573 0.178573 0.178573 0.178573 0.178573 0.178573 0.178573 
0.178573 0.178573 0.178573 0.178573 0.178573 0.178573 0.178573 0.178573 0.178573 
0.178573 0.178573 0.178573 0.178573 0.178573 0.178573 0.178573 0.178573 0.178573 
0.178573 0.178573 0.178573 0.178573 0.178573 0.178573 0.178573 0.178573 0.178573 
0.178573 0.178573 0.178573 0.178573 0.178573 0.178573 0.178573 0.178573 0.178573 
0.178573 0.178573 0.178573 0.178573 0.178573 0.178573 0.178573 0.178573 0.178573 
0.178573 0.178573 0.178573 0.178573 0.178573 0.178573 0.178573 0.178573 0.178573 
0.178573 0.178573 0.178573 0.178573 0.178573 0.178573 0.178573 0.178573 0.178573 
0.178573 0.178573 0.178573 0.178573 0.178573 0.178573 0.178573 0.178573 0.178573 
0.178573 0.178573 0.178573 0.178573 0.178573 0.178573 0.178573 0.178573 0.178573 
0.178573 0.178573 0.178573 0.178573 0.178573 0.178573 0.178573 0.178573 0.178573 
0.178573 0.178573 0.178573 0.178573 0.178573 0.178573 0.178573 0.178573 0.178573 
0.178573 0.178573 0.178573 0.178573 0.178573 0.178573 0.178573 0.178573 0.178573 
0.178573 0.178573 0.178573 0.178573 0.178573 0.178573 0.178573 0.178573 0.178573 
0.178573 0.178573 0.178573 0.178573 0.178573 0.178573 0.178573 0.178573 0.178573 
0.178573 0.178573 0.178573 0.178573 0.178573 0.178573 0.178573 0.178573 0.178573 
0.178573 0.178573 0.178573 0.178573 0.178573 0.178573 0.178573 0.178573 0.178573 
0.178573 0.178573 0.178573 0.178573 0.178573 0.178573 0.178573 0.178573 0.178573 
0.178573 0.178573 0.178573 0.178573 0.178573 0.178573 0.178573 0.178573 0.178573 
0.178573 0.178573 0.178573 0.178573 0.178573 0.178573 0.178573 0.178573 0.178573 
0.178573 0.178573 0.178573 0.178573 0.178573 0.178573 0.178573 0.178573 0.178573 
0.178573 0.178573 0.178573 0.178573 0.178573 0.178573 0.178573 0.178573 0.178573 
0.178573 0.178573 0.178573 0.178573 0.178573 0.178573 0.178573 0.178573 0.178573 
0.178573 0.178573 0.178573 0.178573 0.178573 0.178573 0.178573 0.178573 0.178573 
0.178573 0.178573 0.178573 0.178573 0.178573 0.178573 0.178573 0.178573 0.178573 
0.178573 0.178573 0.178573 0.178573 0.178573 0.178573 0.178573 0.178573 0.178573 
0.178573 0.178573 0.178573 0.178573 0.178573 0.178573 0.178573 0.178573 0.178573 
0.178573 0.178573 0.178573 0.178573 0.178573 0.178573 0.178573 0.178573 0.178573 
0.178573 0.178573 0.178573 0.178573 0.178573 0.178573 0.178573 0.178573 0.178573 
0.178573 0.178573 0.178573 0.178573 0.178573 0.178573 0.178573 0.178573 0.178573 
0.178573 0.178573 0.178573 0.178573 0.178573 0.178573 0.178573 0.178573 0.178573 
0.178573 0.178573 0.178573 0.178573 0.178573 0.178573 0.178573 0.178573 0.178573 
0.178573 0.178573 0.178573 0.178573 0.178573 0.178573 0.178573 0.178573 0.178573 
0.178573 0.178573 0.178573 0.178573 0.178573 0.178573 0.178573 0.178573 0.178573 
0.178573 0.178573 0.178573 0.178573 0.178573 0.178573 0.178573 0.178573 0.178573 
0.178573 0.178573 0.178573 0.178573 0.178573 0.178573 0.178573 0.178573 0.178573 
0.178573 0.178573 0.178573 0.178573 0.178573 0.178573 0.178573 0.178573 0.178573 
0.178573 0.178573 0.178573 0.178573 0.178573 0.178573 0.178573 0.178573 0.178573 
0.178573 0.178573 0.178573 0.178573 0.178573 0.178573 0.178573 0.178573 0.178573 
0.178573 0.178573 0.178573 0.178573 0.178573 0.178573 0.178573 0.178573 0.178573 
0.178573 0.178573 0.178573 0.178573 0.178573 0.178573 0.178573 0.178573 0.178573 
0.178573 0.178573 0.178573 0.178573 0.178573 0.178573 0.178573 0.178573 0.178573 
0.178573 0.178573 0.178573 0.178573 0.178573 0.178573 0.178573 0.178573 0.178573 
0.178573 0.178573 0.178573 0.178573 0.178573 0.178573 0.178573 0.178573 0.178573 
0.178573 0.178573 0.178573 0.178573 0.178573 0.178573 0.178573 0.178573 0.178573 
0.178573 0.178573 0.178573 0.178573 0.178573 0.178573 0.178573 0.178573 0.178573 
0.178573 0.178573 0.178573 0.178573 0.178573 0.178573 0.178573 0.178573 0.178573 
0.178573 0.178573 0.178573 0.178573 0.178573 0.178573 0.178573 0.178573 0.178573 
0.178573 0.178573 0.178573 0.178573 0.178573 0.178573 0.178573 0.178573 0.178573 
0.178573 0.178573 0.178573 0.178573 0.178573 0.178573 0.178573 0.178573 0.178573 
0.178573 0.178573 0.178573 0.178573 0.178573 0.178573 0.178573 0.178573 0.178573 
0.178573 0.178573 0.178573 0.178573 0.178573 0.178573 0.178573 0.178573 0.178573 
0.178573 0.178573 0.178573 0.178573 0.178573 0.178573 0.178573 0.178573 0.178573 
0.178573 0.178573 0.178573 0.178573 0.178573 0.178573 0.178573 0.178573 0.178573 
0.178573 0.178573 0.178573 0.178573 0.178573 0.178573 0.178573 0.178573 0.178573 
0.178573 0.178573 0.178573 0.178573 0.178573 0.178573 0.178573 0.178573 0.178573 
0.178573 0.178573 0.178573 0.178573 0.178573 0.178573 0.178573 0.178573 0.178573 
0.178573 0.178573 0.178573 0.178573 0.178573 0.178573 0.178573 0.178573 0.178573 
0.178573 0.178573 0.178573 0.178573 0.178573 0.178573 0.178573 0.178573 0.178573 
0.178573 0.178573 0.178573 0.178573 0.178573 0.178573 0.178573 0.178573 0.178573 
0.178573 0.178573 0.178573 0.178573 0.178573 0.178573 0.178573 0.178573 0.178573 
0.178573 0.178573 0.178573 0.178573 0.178573 0.178573 0.178573 0.178573 0.178573 
0.178573 0.178573 0.178573 0.178573 0.178573 0.178573 0.178573 0.178573 0.178573 
0.178573 0.178573 0.178573 0.178573 0.178573 0.178573 0.178573 0.178573 0.178573 
0.178573 0.178573 0.178573 0.178573 0.178573 0.178573 0.178573 0.178573 0.178573 
0.178573 0.178573 0.178573 0.178573 0.178573 0.178573 0.178573 0.178573 0.178573 
0.178573 0.178573 0.178573 0.178573 0.178573 0.178573 0.178573 0.178573 0.178573 
0.178573 0.178573 0.178573 0.178573 0.178573 0.178573 0.178573 0.178573 0.178573 
0.178573 0.178573 0.178573 0.178573 0.178573 0.178573 0.178573 0.178573 0.178573 
0.178573 0.178573 0.178573 0.178573 0.178573 0.178573 0.178573 0.178573 0.178573 
0.178573 0.178573 0.178573 0.178573 0.178573 0.178573 0.178573 0.178573 0.178573 
0.178573 0.178573 0.178573 0.178573 0.178573 0.178573 0.178573 0.178573 0.178573 
0.178573 0.178573 0.178573 0.178573 0.178573 0.178573 0.178573 0.178573 0.178573 
0.178573 0.178573 0.178573 0.178573 0.178573 0.178573 0.178573 0.178573 0.178573 
0.178573 0.178573 0.178573 0.178573 0.178573 0.178573 0.178573 0.178573 0.178573 
0.178573 0.178573 0.178573 0.178573 0.178573 0.178573 0.178573 0.178573 0.178573 
0.178573 0.178573 0.178573 0.178573 0.178573 0.178573 0.178573 0.178573 0.178573 
0.178573 0.178573 0.178573 0.178573 0.178573 0.178573 0.178573 0.178573 0.178573 
0.178573 0.178573 0.178573 0.178573 0.178573 0.178573 0.178573 0.178573 0.178573 
0.178573 0.178573 0.178573 0.178573 0.178573 0.178573 0.178573 0.178573 0.178573 
0.178573 0.178573 0.178573 0.178573 0.178573 0.178573 0.178573 0.178573 0.178573 
0.178573 0.178573 0.178573 0.178573 0.178573 0.178573 0.178573 0.178573 0.178573 
0.178573 0.178573 0.178573 0.178573 0.178573 0.178573 0.178573 0.178573 0.178573 
0.178573 0.178573 0.178573 0.178573 0.178573 0.178573 0.178573 0.178573 0.178573 
0.178573 0.178573 0.178573 0.178573 0.178573 0.178573 0.178573 0.178573 0.178573 
0.178573 0.178573 0.178573 0.178573 0.178573 0.178573 0.178573 0.178573 0.178573 
0.178573 0.178573 0.178573 0.178573 0.178573 0.178573 0.178573 0.178573 0.178573 
0.178573 0.178573 0.178573 0.178573 0.178573 0.178573 0.178573 0.178573 0.178573 
0.178573 0.178573 0.178573 0.178573 0.178573 0.178573 0.178573 0.178573 0.178573 
0.178573 0.178573 0.178573 0.178573 0.178573 0.178573 0.178573 0.178573 0.178573 
0.178573 0.178573 0.178573 0.178573 0.178573 0.178573 0.178573 0.178573 0.178573 
0.178573 0.178573 0.178573 0.178573 0.178573 0.178573 0.178573 0.178573 0.178573 
0.178573 0.178573 0.178573 0.178573 0.178573 0.178573 0.178573 0.178573 0.178573 
0.178573 0.178573 0.178573 0.178573 0.178573 0.178573 0.178573 0.178573 0.178573 
0.178573 0.178573 0.178573 0.178573 0.178573 0.178573 0.178573 0.178573 0.178573 
0.178573 0.178573 0.178573 0.178573 0.178573 0.178573 0.178573 0.178573 0.178573 
0.178573 0.178573 0.178573 0.178573 0.178573 0.178573 0.178573 0.178573 0.178573 
0.178573 0.178573 0.178573 0.178573 0.178573 0.178573 0.178573 0.178573 0.178573 
0.178573 0.178573 0.178573 0.178573 0.178573 0.178573 0.178573 0.178573 0.178573 
0.178573 0.178573 0.178573 0.178573 0.178573 0.178573 0.178573 0.178573 0.178573 
0.178573 0.178573 0.178573 0.178573 0.178573 0.178573 0.178573 0.178573 0.178573 
0.178573 0.178573 0.178573 0.178573 0.178573 0.178573 0.178573 0.178573 0.178573 
0.178573 0.178573 0.178573 0.178573 0.178573 0.178573 0.178573 0.178573 0.178573 
0.178573 0.178573 0.178573 0.178573 0.178573 0.178573 0.178573 0.178573 0.178573 
0.178573 0.178573 0.178573 0.178573 0.178573 0.178573 0.178573 0.178573 0.178573 
0.178573 0.178573 0.178573 0.178573 0.178573 0.178573 0.178573 0.178573 0.178573 
0.178573 0.178573 0.178573 0.178573 0.178573 0.178573 0.178573 0.178573 0.178573 
0.178573 0.178573 0.178573 0.178573 0.178573 0.178573 0.178573 0.178573 0.178573 
0.178573 0.178573 0.178573 0.178573 0.178573 0.178573 0.178573 0.178573 0.178573 
0.178573 0.178573 0.178573 0.178573 0.178573 0.178573 0.178573 0.178573 0.178573 
0.178573 0.178573 0.178573 0.178573 0.178573 0.178573 0.178573 0.178573 0.178573 
0.178573 0.178573 0.178573 0.178573 0.178573 0.178573 0.178573 0.178573 0.178573 
0.178573 0.178573 0.178573 0.178573 0.178573 0.178573 0.178573 0.178573 0.178573 
0.178573 0.178573 0.178573 0.178573 0.178573 0.178573 0.178573 0.178573 0.178573 
0.178573 0.178573 0.178573 0.178573 0.178573 0.178573 0.178573 0.178573 0.178573 
0.178573 0.178573 0.178573 0.178573 0.178573 0.178573 0.178573 0.178573 0.178573 
0.178573 0.178573 0.178573 0.178573 0.178573 0.178573 0.178573 0.178573 0.178573 
0.178573 0.178573 0.178573 0.178573 0.178573 0.178573 0.178573 0.178573 0.178573 
0.178573 0.178573 0.178573 0.178573 0.178573 0.178573 0.178573 0.178573 0.178573 
0.178573 0.178573 0.178573 0.178573 0.178573 0.178573 0.178573 0.178573 0.178573 
0.178573 0.178573 0.178573 0.178573 0.178573 0.178573 0.178573 0.178573 0.178573 
0.178573 0.178573 0.178573 0.178573 0.178573 0.178573 0.178573 0.178573 0.178573 
0.178573 0.178573 0.178573 0.178573 0.178573 0.178573 0.178573 0.178573 0.178573 
0.178573 0.178573 0.178573 0.178573 0.178573 0.178573 0.178573 0.178573 0.178573 
0.178573 0.178573 0.178573 0.178573 0.178573 0.178573 0.178573 0.178573 0.178573 
0.178573 0.178573 0.178573 0.178573 0.178573 0.178573 0.178573 0.178573 0.178573 
0.178573 0.178573 0.178573 0.178573 0.178573 0.178573 0.178573 0.178573 0.178573 
0.178573 0.178573 0.178573 0.178573 0.178573 0.178573 0.178573 0.178573 0.178573 
0.178573 0.178573 0.178573 0.178573 0.178573 0.178573 0.178573 0.178573 0.178573 
0.178573 0.178573 0.178573 0.178573 0.178573 0.178573 0.178573 0.178573 0.178573 
0.178573 0.178573 0.178573 0.178573 0.178573 0.178573 0.178573 0.178573 0.178573 
0.178573 0.178573 0.178573 0.178573 0.178573 0.178573 0.178573 0.178573 0.178573 
0.178573 0.178573 0.178573 0.178573 0.178573 0.178573 0.178573 0.178573 0.178573 
0.178573 0.178573 0.178573 0.178573 0.178573 0.178573 0.178573 0.178573 0.178573 
0.178573 0.178573 0.178573 0.178573 0.178573 0.178573 0.178573 0.178573 0.178573 
0.178573 0.178573 0.178573 0.178573 0.178573 0.178573 0.178573 0.178573 0.178573 
0.178573 0.178573 0.178573 0.178573 0.178573 0.178573 0.178573 0.178573 0.178573 
0.178573 0.178573 0.178573 0.178573 0.178573 0.178573 0.178573 0.178573 0.178573 
0.178573 0.178573 0.178573 0.178573 0.178573 0.178573 0.178573 0.178573 0.178573 
0.178573 0.178573 0.178573 0.178573 0.178573 0.178573 0.178573 0.178573 0.178573 
0.178573 0.178573 0.178573 0.178573 0.178573 0.178573 0.178573 0.178573 0.178573 
0.178573 0.178573 0.178573 0.178573 0.178573 0.178573 0.178573 0.178573 0.178573 
0.178573 0.178573 0.178573 0.178573 0.178573 0.178573 0.178573 0.178573 0.178573 
0.178573 0.178573 0.178573 0.178573 0.178573 0.178573 0.178573 0.178573 0.178573 
0.178573 0.178573 0.178573 0.178573 0.178573 0.178573 0.178573 0.178573 0.178573 
0.178573 0.178573 0.178573 0.178573 0.178573 0.178573 0.178573 0.178573 0.178573 
0.178573 0.178573 0.178573 0.178573 0.178573 0.178573 0.178573 0.178573 0.178573 
0.178573 0.178573 0.178573 0.178573 0.178573 0.178573 0.178573 0.178573 0.178573 
0.178573 0.178573 0.178573 0.178573 0.178573 0.178573 0.178573 0.178573 0.178573 
0.178573 0.178573 0.178573 0.178573 0.178573 0.178573 0.178573 0.178573 0.178573 
0.178573 0.178573 0.178573 0.178573 0.178573 0.178573 0.178573 0.178573 0.178573 
0.178573 0.178573 0.178573 0.178573 0.178573 0.178573 0.178573 0.178573 0.178573 
0.178573 0.178573 0.178573 0.178573 0.178573 0.178573 0.178573 0.178573 0.178573 
0.178573 0.178573 0.178573 0.178573 0.178573 0.178573 0.178573 0.178573 0.178573 
0.178573 0.178573 0.178573 0.178573 0.178573 0.178573 0.178573 0.178573 0.178573 
0.178573 0.178573 0.178573 0.178573 0.178573 0.178573 0.178573 0.178573 0.178573 
0.178573 0.178573 0.178573 0.178573 0.178573 0.178573 0.178573 0.178573 0.178573 
0.178573 0.178573 0.178573 0.178573 0.178573 0.178573 0.178573 0.178573 0.178573 
0.178573 0.178573 0.178573 0.178573 0.178573 0.178573 0.178573 0.178573 0.178573 
0.178573 0.178573 0.178573 0.178573 0.178573 0.178573 0.178573 0.178573 0.178573 
0.178573 0.178573 0.178573 0.178573 0.178573 0.178573 0.178573 0.178573 0.178573 
0.178573 0.178573 0.178573 0.178573 0.178573 0.178573 0.178573 0.178573 0.178573 
0.178573 0.178573 0.178573 0.178573 0.178573 0.178573 0.178573 0.178573 0.178573 
0.178573 0.178573 0.178573 0.178573 0.178573 0.178573 0.178573 0.178573 0.178573 
0.178573 0.178573 0.178573 0.178573 0.178573 0.178573 0.178573 0.178573 0.178573 
0.178573 0.178573 0.178573 0.178573 0.178573 0.178573 0.178573 0.178573 0.178573 
0.178573 0.178573 0.178573 0.178573 0.178573 0.178573 0.178573 0.178573 0.178573 
0.178573 0.178573 0.178573 0.178573 0.178573 0.178573 0.178573 0.178573 0.178573 
0.178573 0.178573 0.178573 0.178573 0.178573 0.178573 0.178573 0.178573 0.178573 
0.178573 0.178573 0.178573 0.178573 0.178573 0.178573 0.178573 0.178573 0.178573 
0.178573 0.178573 0.178573 0.178573 0.178573 0.178573 0.178573 0.178573 0.178573 
0.178573 0.178573 0.178573 0.178573 0.178573 0.178573 0.178573 0.178573 0.178573 
0.178573 0.178573 0.178573 0.178573 0.178573 0.178573 0.178573 0.178573 0.178573 
0.178573 0.178573 0.178573 0.178573 0.178573 0.178573 0.178573 0.178573 0.178573 
0.178573 0.178573 0.178573 0.178573 0.178573 0.178573 0.178573 0.178573 0.178573 
0.178573 0.178573 0.178573 0.178573 0.178573 0.178573 0.178573 0.178573 0.178573 
0.178573 0.178573 0.178573 0.178573 0.178573 0.178573 0.178573 0.178573 0.178573 
0.178573 0.178573 0.178573 0.178573 0.178573 0.178573 0.178573 0.178573 0.178573 
0.178573 0.178573 0.178573 0.178573 0.178573 0.178573 0.178573 0.178573 0.178573 
0.178573 0.178573 0.178573 0.178573 0.178573 0.178573 0.178573 0.178573 0.178573 
0.178573 0.178573 0.178573 0.178573 0.178573 0.178573 0.178573 0.178573 0.178573 
0.178573 0.178573 0.178573 0.178573 0.178573 0.178573 0.178573 0.178573 0.178573 
0.178573 0.178573 0.178573 0.178573 0.178573 0.178573 0.178573 0.178573 0.178573 
0.178573 0.178573 0.178573 0.178573 0.178573 0.178573 0.178573 0.178573 0.178573 
0.178573 0.178573 0.178573 0.178573 0.178573 0.178573 0.178573 0.178573 0.178573 
0.178573 0.178573 0.178573 0.178573 0.178573 0.178573 0.178573 0.178573 0.178573 
0.178573 0.178573 0.178573 0.178573 0.178573 0.178573 0.178573 0.178573 0.178573 
0.178573 0.178573 0.178573 0.178573 0.178573 0.178573 0.178573 0.178573 0.178573 
0.178573 0.178573 0.178573 0.178573 0.178573 0.178573 0.178573 0.178573 0.178573 
0.178573 0.178573 0.178573 0.178573 0.178573 0.178573 0.178573 0.178573 0.178573 
0.178573 0.178573 0.178573 0.178573 0.178573 0.178573 0.178573 0.178573 0.178573 
0.178573 0.178573 0.178573 0.178573 0.178573 0.178573 0.178573 0.178573 0.178573 
0.178573 0.178573 0.178573 0.178573 0.178573 0.178573 0.178573 0.178573 0.178573 
0.178573 0.178573 0.178573 0.178573 0.178573 0.178573 0.178573 0.178573 0.178573 
0.178573 0.178573 0.178573 0.178573 0.178573 0.178573 0.178573 0.178573 0.178573 
0.178573 0.178573 0.178573 0.178573 0.178573 0.178573 0.178573 0.178573 0.178573 
0.178573 0.178573 0.178573 0.178573 0.178573 0.178573 0.178573 0.178573 0.178573 
0.178573 0.178573 0.178573 0.178573 0.178573 0.178573 0.178573 0.178573 0.178573 
0.178573 0.178573 0.178573 0.178573 0.178573 0.178573 0.178573 0.178573 0.178573 
0.178573 0.178573 0.178573 0.178573 0.178573 0.178573 0.178573 0.178573 0.178573 
0.178573 0.178573 0.178573 0.178573 0.178573 0.178573 0.178573 0.178573 0.178573 
0.178573 0.178573 0.178573 0.178573 0.178573 0.178573 0.178573 0.178573 0.178573 
0.178573 0.178573 0.178573 0.178573 0.178573 0.178573 0.178573 0.178573 0.178573 
0.178573 0.178573 0.178573 0.178573 0.178573 0.178573 0.178573 0.178573 0.178573 
0.178573 0.178573 0.178573 0.178573 0.178573 0.178573 0.178573 0.178573 0.178573 
0.178573 0.178573 0.178573 0.178573 0.178573 0.178573 0.178573 0.178573 0.178573 
0.178573 0.178573 0.178573 0.178573 0.178573 0.178573 0.178573 0.178573 0.178573 
0.178573 0.178573 0.178573 0.178573 0.178573 0.178573 0.178573 0.178573 0.178573 
0.178573 0.178573 0.178573 0.178573 0.178573 0.178573 0.178573 0.178573 0.178573 
0.178573 0.178573 0.178573 0.178573 0.178573 0.178573 0.178573 0.178573 0.178573 
0.178573 0.178573 0.178573 0.178573 0.178573 0.178573 0.178573 0.178573 0.178573 
0.178573 0.178573 0.178573 0.178573 0.178573 0.178573 0.178573 0.178573 0.178573 
0.178573 0.178573 0.178573 0.178573 0.178573 0.178573 0.178573 0.178573 0.178573 
0.178573 0.178573 0.178573 0.178573 0.178573 0.178573 0.178573 0.178573 0.178573 
0.178573 0.178573 0.178573 0.178573 0.178573 0.178573 0.178573 0.178573 0.178573 
0.178573 0.178573 0.178573 0.178573 0.178573 0.178573 0.178573 0.178573 0.178573 
0.178573 0.178573 0.178573 0.178573 0.178573 0.178573 0.178573 0.178573 0.178573 
0.178573 0.178573 0.178573 0.178573 0.178573 0.178573 0.178573 0.178573 0.178573 
0.178573 0.178573 0.178573 0.178573 0.178573 0.178573 0.178573 0.178573 0.178573 
0.178573 0.178573 0.178573 0.178573 0.178573 0.178573 0.178573 0.178573 0.178573 
0.178573 0.178573 0.178573 0.178573 0.178573 0.178573 0.178573 0.178573 0.178573 
0.178573 0.178573 0.178573 0.178573 0.178573 0.178573 0.178573 0.178573 0.178573 
0.178573 0.178573 0.178573 0.178573 0.178573 0.178573 0.178573 0.178573 0.178573 
0.178573 0.178573 0.178573 0.178573 0.178573 0.178573 0.178573 0.178573 0.178573 
0.178573 0.178573 0.178573 0.178573 0.178573 0.178573 0.178573 0.178573 0.178573 
0.178573 0.178573 0.178573 0.178573 0.178573 0.178573 0.178573 0.178573 0.178573 
0.178573 0.178573 0.178573 0.178573 0.178573 0.178573 0.178573 0.178573 0.178573 
0.178573 0.178573 0.178573 0.178573 0.178573 0.178573 0.178573 0.178573 0.178573 
0.178573 0.178573 0.178573 0.178573 0.178573 0.178573 0.178573 0.178573 0.178573 