# vtk DataFile Version 5.1
vtk output
ASCII
DATASET STRUCTURED_GRID
DIMENSIONS 25 25 20
POINTS 12500 float
1.46131 0.915359 0.5 1.46131 0.915359 0.503 1.46131 0.915359 0.506095 
1.46131 0.915359 0.509384 1.46131 0.915359 0.512971 1.46131 0.915359 0.516969 
1.46131 0.915359 0.521506 1.46131 0.915359 0.526726 1.46131 0.915359 0.532795 
1.46131 0.915359 0.539904 1.46131 0.915359 0.548281 1.46131 0.915359 0.55819 
1.46131 0.915359 0.569947 1.46131 0.915359 0.583924 1.46131 0.915359 0.600565 
1.46131 0.915359 0.6204 1.46131 0.915359 0.644057 1.46131 0.915359 0.672287 
1.46131 0.915359 0.705987 1.46131 0.915359 0.746226 1.46131 0.915359 0.794282 
1.46131 0.915359 0.851682 1.46131 0.915359 0.920246 1.46131 0.915359 1.00215 
1.46131 0.915359 1.1 1.46429 0.915359 0.500366 1.46429 0.915359 0.503366 
1.46429 0.915359 0.506461 1.46429 0.915359 0.509749 1.46429 0.915359 0.513336 
1.46429 0.915359 0.517334 1.46429 0.915359 0.52187 1.46429 0.915359 0.527089 
1.46429 0.915359 0.533157 1.46429 0.915359 0.540264 1.46429 0.915359 0.548638 
1.46429 0.915359 0.558544 1.46429 0.915359 0.570296 1.46429 0.915359 0.584268 
1.4643 0.915359 0.600902 1.4643 0.915359 0.620727 1.4643 0.915359 0.644372 
1.4643 0.915359 0.672586 1.4643 0.915359 0.706267 1.4643 0.915359 0.746481 
1.4643 0.915359 0.794507 1.4643 0.915359 0.851867 1.46431 0.915359 0.920382 
1.46431 0.915359 1.00223 1.46431 0.915359 1.1 1.46808 0.915359 0.500831 
1.46808 0.915359 0.503831 1.46808 0.915359 0.506926 1.46808 0.915359 0.510214 
1.46808 0.915359 0.513801 1.46808 0.915359 0.517798 1.46808 0.915359 0.522334 
1.46808 0.915359 0.527551 1.46808 0.915359 0.533617 1.46808 0.915359 0.540722 
1.46808 0.915359 0.549093 1.46808 0.915359 0.558995 1.46808 0.915359 0.570741 
1.46808 0.915359 0.584705 1.46809 0.915359 0.60133 1.46809 0.915359 0.621143 
1.46809 0.915359 0.644772 1.46809 0.915359 0.672967 1.46809 0.915359 0.706622 
1.4681 0.915359 0.746806 1.4681 0.915359 0.794792 1.46811 0.915359 0.852103 
1.46811 0.915359 0.920556 1.46812 0.915359 1.00232 1.46812 0.915359 1.1 
1.47288 0.915359 0.50142 1.47288 0.915359 0.50442 1.47288 0.915359 0.507515 
1.47288 0.915359 0.510803 1.47288 0.915359 0.514389 1.47288 0.915359 0.518386 
1.47288 0.915359 0.52292 1.47288 0.915359 0.528137 1.47288 0.915359 0.5342 
1.47288 0.915359 0.541302 1.47288 0.915359 0.549669 1.47288 0.915359 0.559565 
1.47288 0.915359 0.571305 1.47289 0.915359 0.58526 1.47289 0.915359 0.601873 
1.47289 0.915359 0.62167 1.47289 0.915359 0.645279 1.4729 0.915359 0.673449 
1.4729 0.915359 0.707073 1.4729 0.915359 0.747217 1.47291 0.915359 0.795153 
1.47292 0.915359 0.852401 1.47293 0.915359 0.920776 1.47294 0.915359 1.00245 
1.47295 0.915359 1.1 1.47892 0.915359 0.502162 1.47892 0.915359 0.505162 
1.47892 0.915359 0.508257 1.47892 0.915359 0.511545 1.47892 0.915359 0.51513 
1.47892 0.915359 0.519126 1.47892 0.915359 0.52366 1.47892 0.915359 0.528874 
1.47892 0.915359 0.534934 1.47892 0.915359 0.542033 1.47893 0.915359 0.550395 
1.47893 0.915359 0.560284 1.47893 0.915359 0.572015 1.47893 0.915359 0.585958 
1.47893 0.915359 0.602556 1.47894 0.915359 0.622334 1.47894 0.915359 0.645918 
1.47895 0.915359 0.674057 1.47895 0.915359 0.707641 1.47896 0.915359 0.747735 
1.47897 0.915359 0.795608 1.47898 0.915359 0.852777 1.47899 0.915359 0.921053 
1.479 0.915359 1.0026 1.47902 0.915359 1.1 1.48648 0.915359 0.50309 
1.48648 0.915359 0.50609 1.48648 0.915359 0.509185 1.48648 0.915359 0.512473 
1.48648 0.915359 0.516057 1.48648 0.915359 0.520052 1.48648 0.915359 0.524584 
1.48648 0.915359 0.529796 1.48649 0.915359 0.535853 1.48649 0.915359 0.542947 
1.48649 0.915359 0.551302 1.48649 0.915359 0.561183 1.48649 0.915359 0.572903 
1.4865 0.915359 0.586831 1.4865 0.915359 0.60341 1.4865 0.915359 0.623164 
1.48651 0.915359 0.646718 1.48651 0.915359 0.674817 1.48652 0.915359 0.708352 
1.48653 0.915359 0.748382 1.48654 0.915359 0.796176 1.48655 0.915359 0.853247 
1.48656 0.915359 0.9214 1.48658 0.915359 1.00279 1.4866 0.915359 1.1 
1.49586 0.915359 0.504241 1.49586 0.915359 0.507241 1.49586 0.915359 0.510336 
1.49586 0.915359 0.513624 1.49586 0.915359 0.517208 1.49586 0.915359 0.521201 
1.49586 0.915359 0.525731 1.49586 0.915359 0.53094 1.49586 0.915359 0.536993 
1.49586 0.915359 0.544081 1.49587 0.915359 0.552428 1.49587 0.915359 0.562299 
1.49587 0.915359 0.574004 1.49588 0.915359 0.587915 1.49588 0.915359 0.60447 
1.49588 0.915359 0.624194 1.49589 0.915359 0.647709 1.4959 0.915359 0.67576 
1.4959 0.915359 0.709233 1.49591 0.915359 0.749186 1.49593 0.915359 0.796882 
1.49594 0.915359 0.85383 1.49595 0.915359 0.921829 1.49597 0.915359 1.00303 
1.496 0.915359 1.1 1.50737 0.915359 0.505655 1.50737 0.915359 0.508655 
1.50737 0.915359 0.511749 1.50737 0.915359 0.515036 1.50737 0.915359 0.518619 
1.50737 0.915359 0.522612 1.50737 0.915359 0.527139 1.50737 0.915359 0.532344 
1.50738 0.915359 0.538392 1.50738 0.915359 0.545473 1.50738 0.915359 0.55381 
1.50738 0.915359 0.563668 1.50738 0.915359 0.575356 1.50739 0.915359 0.589245 
1.50739 0.915359 0.605771 1.5074 0.915359 0.625458 1.5074 0.915359 0.648927 
1.50741 0.915359 0.676917 1.50742 0.915359 0.710314 1.50743 0.915359 0.750172 
1.50744 0.915359 0.797748 1.50746 0.915359 0.854545 1.50747 0.915359 0.922356 
1.50749 0.915359 1.00332 1.50752 0.915359 1.1 1.52131 0.915359 0.507367 
1.52131 0.915359 0.510367 1.52131 0.915359 0.513461 1.52131 0.915359 0.516748 
1.52131 0.915359 0.52033 1.52132 0.915359 0.52432 1.52132 0.915359 0.528844 
1.52132 0.915359 0.534045 1.52132 0.915359 0.540087 1.52132 0.915359 0.547159 
1.52132 0.915359 0.555485 1.52133 0.915359 0.565327 1.52133 0.915359 0.576994 
1.52133 0.915359 0.590856 1.52134 0.915359 0.607348 1.52134 0.915359 0.62699 
1.52135 0.915359 0.650401 1.52136 0.915359 0.678319 1.52137 0.915359 0.711625 
1.52138 0.915359 0.751367 1.52139 0.915359 0.798797 1.5214 0.915359 0.855412 
1.52142 0.915359 0.922995 1.52144 0.915359 1.00368 1.52147 0.915359 1.1 
1.53794 0.915359 0.509409 1.53794 0.915359 0.512409 1.53794 0.915359 0.515503 
1.53795 0.915359 0.518789 1.53795 0.915359 0.52237 1.53795 0.915359 0.526358 
1.53795 0.915359 0.530879 1.53795 0.915359 0.536074 1.53795 0.915359 0.542108 
1.53795 0.915359 0.54917 1.53795 0.915359 0.557482 1.53796 0.915359 0.567305 
1.53796 0.915359 0.578948 1.53796 0.915359 0.592777 1.53797 0.915359 0.609228 
1.53797 0.915359 0.628816 1.53798 0.915359 0.65216 1.53798 0.915359 0.679992 
1.53799 0.915359 0.713187 1.538 0.915359 0.752791 1.53801 0.915359 0.800048 
1.53803 0.915359 0.856446 1.53804 0.915359 0.923757 1.53806 0.915359 1.0041 
1.53808 0.915359 1.1 1.55741 0.915359 0.5118 1.55741 0.915359 0.5148 
1.55741 0.915359 0.517894 1.55742 0.915359 0.521179 1.55742 0.915359 0.524758 
1.55742 0.915359 0.528743 1.55742 0.915359 0.53326 1.55742 0.915359 0.53845 
1.55742 0.915359 0.544475 1.55742 0.915359 0.551524 1.55742 0.915359 0.559819 
1.55742 0.915359 0.56962 1.55743 0.915359 0.581235 1.55743 0.915359 0.595026 
1.55743 0.915359 0.611428 1.55743 0.915359 0.630955 1.55744 0.915359 0.654218 
1.55745 0.915359 0.681949 1.55745 0.915359 0.715017 1.55746 0.915359 0.754459 
1.55747 0.915359 0.801513 1.55748 0.915359 0.857656 1.55749 0.915359 0.924649 
1.55751 0.915359 1.00459 1.55752 0.915359 1.1 1.57971 0.915359 0.514537 
1.57971 0.915359 0.517537 1.57971 0.915359 0.520631 1.57971 0.915359 0.523915 
1.57971 0.915359 0.527493 1.57971 0.915359 0.531475 1.57971 0.915359 0.535987 
1.57971 0.915359 0.54117 1.57971 0.915359 0.547185 1.57971 0.915359 0.55422 
1.57972 0.915359 0.562497 1.57972 0.915359 0.572273 1.57972 0.915359 0.583854 
1.57972 0.915359 0.597602 1.57972 0.915359 0.613949 1.57972 0.915359 0.633403 
1.57973 0.915359 0.656576 1.57973 0.915359 0.684191 1.57973 0.915359 0.717111 
1.57974 0.915359 0.756369 1.57974 0.915359 0.80319 1.57975 0.915359 0.859041 
1.57975 0.915359 0.92567 1.57976 0.915359 1.00516 1.57977 0.915359 1.1 
1.60462 0.915359 0.517595 1.60462 0.915359 0.520595 1.60462 0.915359 0.523689 
1.60462 0.915359 0.526972 1.60462 0.915359 0.530548 1.60462 0.915359 0.534527 
1.60462 0.915359 0.539033 1.60462 0.915359 0.544208 1.60462 0.915359 0.550212 
1.60462 0.915359 0.557232 1.60462 0.915359 0.565487 1.60462 0.915359 0.575235 
1.60462 0.915359 0.586779 1.60462 0.915359 0.60048 1.60462 0.915359 0.616764 
1.60462 0.915359 0.636139 1.60462 0.915359 0.659209 1.60461 0.915359 0.686694 
1.60461 0.915359 0.719451 1.60461 0.915359 0.758502 1.60461 0.915359 0.805063 
1.60461 0.915359 0.860589 1.60461 0.915359 0.92681 1.60461 0.915359 1.00579 
1.60461 0.915359 1.1 1.63167 0.915359 0.520917 1.63167 0.915359 0.523917 
1.63167 0.915359 0.527011 1.63167 0.915359 0.530293 1.63167 0.915359 0.533866 
1.63167 0.915359 0.537841 1.63167 0.915359 0.542342 1.63167 0.915359 0.547508 
1.63167 0.915359 0.5535 1.63167 0.915359 0.560503 1.63167 0.915359 0.568735 
1.63166 0.915359 0.578453 1.63166 0.915359 0.589957 1.63166 0.915359 0.603605 
1.63166 0.915359 0.619822 1.63165 0.915359 0.63911 1.63165 0.915359 0.66207 
1.63165 0.915359 0.689414 1.63164 0.915359 0.721993 1.63164 0.915359 0.760819 
1.63163 0.915359 0.807098 1.63162 0.915359 0.86227 1.63161 0.915359 0.928049 
1.6316 0.915359 1.00648 1.63159 0.915359 1.1 1.66019 0.915359 0.524418 
1.66018 0.915359 0.527418 1.66018 0.915359 0.530511 1.66018 0.915359 0.533792 
1.66018 0.915359 0.537364 1.66018 0.915359 0.541335 1.66018 0.915359 0.54583 
1.66018 0.915359 0.550987 1.66018 0.915359 0.556965 1.66017 0.915359 0.563951 
1.66017 0.915359 0.572159 1.66017 0.915359 0.581844 1.66017 0.915359 0.593306 
1.66016 0.915359 0.606899 1.66016 0.915359 0.623044 1.66015 0.915359 0.642241 
1.66015 0.915359 0.665085 1.66014 0.915359 0.69228 1.66013 0.915359 0.724672 
1.66012 0.915359 0.763261 1.6601 0.915359 0.809243 1.66009 0.915359 0.864042 
1.66007 0.915359 0.929354 1.66005 0.915359 1.0072 1.66002 0.915359 1.1 
1.6893 0.915359 0.527993 1.68929 0.915359 0.530993 1.68929 0.915359 0.534085 
1.68929 0.915359 0.537365 1.68929 0.915359 0.540934 1.68929 0.915359 0.544901 
[...]
POINT_DATA 12500
FIELD FieldData 5
pressure 1 12500 float
0.377062 0.332373 0.321047 0.320733 0.320064 0.318372 0.316747 0.314918 0.312819 
0.310595 0.308376 0.304902 0.300348 0.29622 0.2896 0.277687 0.267654 0.259754 
0.250584 0.2428 0.236713 0.225515 0.19218 0.179763 0.178475 0.207067 0.207067 
0.242823 0.269468 0.285092 0.294775 0.300767 0.304061 0.305252 0.305024 0.304147 
0.301644 0.297838 0.294589 0.288841 0.277743 0.267626 0.259933 0.251263 0.243216 
0.237356 0.22768 0.19525 0.180236 0.178427 0.225693 0.225693 0.243969 0.263968 
0.28094 0.290947 0.297023 0.30066 0.302438 0.302846 0.302447 0.30042 0.296946 
0.293848 0.288786 0.278142 0.267922 0.26012 0.251523 0.243418 0.23747 0.22831 
0.197113 0.180595 0.178389 0.236507 0.236507 0.241982 0.256485 0.27342 0.286235 
0.292811 0.296559 0.298596 0.299476 0.2997 0.298458 0.295457 0.292492 0.288254 
0.278701 0.268314 0.260195 0.25189 0.243819 0.237752 0.229041 0.199594 0.181113 
0.178335 0.244142 0.244142 0.245254 0.250387 0.261236 0.27564 0.286712 0.292387 
0.294781 0.295847 0.296489 0.296104 0.293761 0.2908 0.287374 0.279368 0.268961 
0.260346 0.2523 0.244328 0.237966 0.229767 0.202796 0.181912 0.178247 0.259484 
0.259484 0.255025 0.254489 0.255845 0.263466 0.273643 0.283984 0.290424 0.292304 
0.293011 0.293079 0.291583 0.28884 0.286049 0.279962 0.269812 0.260634 0.252774 
0.245015 0.23824 0.230572 0.206787 0.183164 0.178101 0.2772 0.2772 0.272164 
0.269225 0.265576 0.263839 0.26638 0.272183 0.280585 0.287184 0.289648 0.290026 
0.288913 0.286389 0.284214 0.280036 0.270871 0.261027 0.253332 0.245787 0.238451 
0.231139 0.211487 0.185106 0.177882 0.285721 0.285721 0.28099 0.279603 0.277279 
0.273877 0.270353 0.268825 0.27135 0.27645 0.282367 0.285874 0.286182 0.284029 
0.281932 0.27906 0.271993 0.261716 0.253957 0.246542 0.238655 0.231974 0.2169 
0.187955 0.177776 0.289828 0.289828 0.286737 0.285936 0.285146 0.283917 0.281408 
0.277367 0.27324 0.271774 0.273986 0.278206 0.281526 0.281677 0.279969 0.277592 
0.272341 0.262683 0.254709 0.247189 0.239041 0.232685 0.221585 0.192036 0.177993 
0.292288 0.292288 0.29041 0.289743 0.28925 0.288712 0.287833 0.285952 0.282522 
0.2779 0.273409 0.272477 0.274714 0.276861 0.277364 0.275776 0.272031 0.263753 
0.255561 0.24785 0.239546 0.233115 0.225371 0.197734 0.178919 0.292839 0.292839 
0.291439 0.290945 0.290537 0.290139 0.289846 0.289346 0.288286 0.285961 0.281809 
0.276317 0.272578 0.272193 0.272459 0.272337 0.270661 0.265036 0.256562 0.248488 
0.240243 0.233645 0.226297 0.20426 0.180695 0.291057 0.291057 0.2901 0.289882 
0.289704 0.289563 0.289428 0.289179 0.288759 0.287944 0.286555 0.283223 0.277795 
0.272688 0.269708 0.268105 0.267269 0.264954 0.25777 0.249209 0.24114 0.234257 
0.227949 0.211191 0.183231 0.286525 0.286525 0.285609 0.284889 0.284435 0.283953 
0.283675 0.283368 0.283128 0.28288 0.282678 0.282333 0.280455 0.276753 0.271881 
0.267014 0.26384 0.262309 0.258054 0.250106 0.242151 0.234985 0.229267 0.217239 
0.186137 0.279103 0.279103 0.27826 0.277706 0.277273 0.27686 0.276625 0.276443 
0.276413 0.276348 0.276262 0.276165 0.275852 0.274802 0.27199 0.268151 0.263201 
0.259567 0.25643 0.250693 0.243239 0.235967 0.229698 0.221443 0.189051 0.272796 
0.272796 0.272241 0.271633 0.271246 0.270798 0.270521 0.270299 0.270111 0.269969 
0.269705 0.269442 0.269192 0.26908 0.268548 0.267223 0.263428 0.258628 0.254466 
0.250209 0.244034 0.236987 0.229941 0.222203 0.191531 0.267757 0.267757 0.267391 
0.266804 0.266387 0.265909 0.265522 0.265103 0.264706 0.264288 0.26392 0.263576 
0.263285 0.263263 0.26334 0.263133 0.26133 0.257983 0.253419 0.248988 0.243951 
0.237567 0.230037 0.222401 0.193243 0.262339 0.262339 0.262074 0.261478 0.261084 
0.260692 0.2603 0.259998 0.259637 0.259332 0.258996 0.258723 0.258349 0.258048 
0.257627 0.257153 0.256444 0.255739 0.252329 0.247906 0.242851 0.237239 0.229551 
0.22148 0.194105 0.256995 0.256995 0.25678 0.256247 0.255978 0.255736 0.255521 
0.255327 0.255124 0.254871 0.254559 0.254096 0.253428 0.252604 0.251827 0.25117 
0.251252 0.25145 0.249482 0.246655 0.241595 0.236013 0.228304 0.219511 0.194194 
0.252523 0.252523 0.252322 0.251871 0.251629 0.251407 0.251179 0.25096 0.250669 
0.250326 0.249819 0.249181 0.248355 0.24746 0.246724 0.246224 0.246203 0.246275 
0.245071 0.244392 0.240361 0.234328 0.226455 0.217369 0.193955 0.248386 0.248386 
0.248065 0.247753 0.247371 0.24704 0.24668 0.246277 0.245812 0.245253 0.244659 
0.244022 0.243422 0.24291 0.242462 0.242089 0.241529 0.241246 0.240754 0.241263 
0.238532 0.232629 0.224294 0.215506 0.193526 0.243513 0.243513 0.243231 0.242883 
0.242426 0.242022 0.241538 0.241025 0.240467 0.239904 0.239352 0.238939 0.238702 
0.238634 0.238445 0.23811 0.237246 0.236776 0.237047 0.237767 0.235938 0.230949 
0.222106 0.213785 0.192972 0.237213 0.237213 0.237027 0.236669 0.236235 0.235902 
0.235537 0.235119 0.234695 0.234301 0.234006 0.2339 0.234002 0.234221 0.234233 
0.234039 0.233339 0.233009 0.233871 0.234417 0.233073 0.229247 0.219953 0.21206 
0.192345 0.229348 0.229348 0.22925 0.228907 0.228626 0.228473 0.228379 0.228298 
0.228245 0.228255 0.228386 0.22868 0.229081 0.229556 0.229789 0.229931 0.229781 
0.229892 0.231003 0.231382 0.230241 0.227391 0.218193 0.210372 0.191735 0.218282 
0.218282 0.218402 0.218242 0.218463 0.218854 0.219392 0.22002 0.220726 0.221517 
0.222362 0.22325 0.224099 0.224896 0.225436 0.22601 0.226543 0.227254 0.228573 
0.228875 0.22781 0.225604 0.216753 0.208628 0.191178 0.197637 0.197637 0.199141 
0.200856 0.203394 0.205836 0.208177 0.210245 0.212173 0.214002 0.215747 0.217394 
0.218841 0.220108 0.221125 0.22233 0.223714 0.225046 0.226394 0.22666 0.225653 
0.223835 0.215659 0.207228 0.190695 0.377062 0.332373 0.321047 0.320733 0.320064 
0.318372 0.316747 0.314918 0.312819 0.310595 0.308376 0.304902 0.300348 0.29622 
0.2896 0.277687 0.267654 0.259754 0.250584 0.2428 0.236713 0.225515 0.19218 
0.179763 0.178475 0.259825 0.259825 0.288785 0.3081 0.313303 0.313948 0.313593 
0.312569 0.311105 0.309319 0.307336 0.303944 0.299518 0.295713 0.289398 0.277864 
0.267638 0.259781 0.250686 0.242884 0.236902 0.226151 0.193127 0.179892 0.178462 
0.213922 0.213922 0.247035 0.277966 0.298855 0.305986 0.307804 0.308191 0.307898 
0.306916 0.305486 0.302609 0.298508 0.294907 0.289463 0.278517 0.26802 0.259931 
0.250982 0.243146 0.237142 0.227119 0.194808 0.180133 0.178436 0.222591 0.222591 
0.229165 0.251516 0.274833 0.29372 0.301145 0.303296 0.303735 0.303461 0.302824 
0.300845 0.297111 0.293648 0.289271 0.279464 0.268606 0.26013 0.251416 0.243578 
0.237434 0.228071 0.197118 0.180514 0.178397 0.246999 0.246999 0.24181 0.241864 
0.252206 0.272264 0.287566 0.296957 0.299323 0.299569 0.2995 0.29858 0.295589 
0.292055 0.288577 0.280518 0.269429 0.260362 0.251977 0.244126 0.237724 0.229066 
0.200176 0.181138 0.178327 0.270989 0.270989 0.263935 0.259824 0.258695 0.260489 
0.270524 0.283644 0.292872 0.295589 0.295863 0.295504 0.293581 0.290293 0.287402 
0.281177 0.270443 0.260698 0.252652 0.244825 0.238062 0.22994 0.204069 0.182173 
0.178224 0.286849 0.286849 0.279755 0.277179 0.273331 0.270054 0.267354 0.269655 
0.279393 0.287947 0.291803 0.292416 0.290989 0.288006 0.285698 0.281328 0.27169 
0.261161 0.253459 0.245645 0.23829 0.23066 0.208862 0.183929 0.178014 0.290242 
0.290242 0.283943 0.283413 0.282851 0.280938 0.277351 0.273188 0.271607 0.276142 
0.282936 0.287384 0.288406 0.286106 0.283617 0.280331 0.272844 0.262059 0.254348 
0.246487 0.238556 0.231721 0.214644 0.186612 0.177815 0.295304 0.295304 0.290208 
0.28923 0.289323 0.28898 0.287551 0.284043 0.279297 0.275294 0.274462 0.278838 
0.282931 0.283879 0.281919 0.279031 0.273151 0.263352 0.255336 0.247244 0.23905 
0.232606 0.220251 0.190504 0.177861 0.297584 0.297584 0.293708 0.292164 0.291985 
0.291829 0.291302 0.290178 0.287633 0.283348 0.278419 0.274792 0.275726 0.278523 
0.278909 0.277127 0.273134 0.264797 0.256315 0.248011 0.239626 0.233154 0.224624 
0.196089 0.178543 0.297245 0.297245 0.294521 0.293179 0.292923 0.292902 0.292781 
0.292364 0.291659 0.289967 0.286568 0.281115 0.276328 0.273851 0.273659 0.273404 
0.271732 0.266384 0.257372 0.248758 0.240388 0.233714 0.225796 0.202693 0.180138 
0.29402 0.29402 0.292313 0.291026 0.290916 0.291012 0.290985 0.290662 0.29018 
0.289519 0.28835 0.286139 0.281354 0.27628 0.272004 0.26931 0.268187 0.266008 
0.258565 0.249636 0.241346 0.234349 0.2279 0.209833 0.182599 0.286883 0.286883 
0.285764 0.284458 0.284045 0.283739 0.283499 0.283253 0.282973 0.282711 0.282521 
0.282305 0.2816 0.278957 0.274367 0.269298 0.265218 0.263104 0.258647 0.250699 
0.242458 0.235072 0.229177 0.216221 0.185556 0.278692 0.278692 0.278003 0.276924 
0.276636 0.27637 0.276287 0.276162 0.276155 0.276119 0.276081 0.276007 0.275843 
0.275259 0.273259 0.270072 0.265234 0.260814 0.257109 0.251386 0.243654 0.236055 
0.229633 0.220934 0.188557 0.273043 0.273043 0.272815 0.271966 0.271686 0.271509 
0.27139 0.271215 0.270967 0.270659 0.270267 0.269915 0.269569 0.269426 0.269199 
0.268384 0.264993 0.260386 0.255738 0.25101 0.244548 0.23718 0.230204 0.222257 
0.191193 0.268298 0.268298 0.268274 0.267519 0.267162 0.266861 0.2666 0.26621 
0.265813 0.265374 0.264983 0.264676 0.264414 0.264301 0.264148 0.263682 0.262047 
0.259496 0.255048 0.250194 0.244589 0.237937 0.230348 0.222767 0.193106 0.262847 
0.262847 0.262906 0.262278 0.261895 0.261646 0.261394 0.261122 0.260814 0.260552 
0.260267 0.26 0.259611 0.259139 0.25845 0.257752 0.257182 0.25667 0.253708 
0.24939 0.243823 0.237772 0.229816 0.221704 0.194057 0.257751 0.257751 0.257885 
0.257381 0.257091 0.256929 0.256798 0.25663 0.256473 0.256248 0.255947 0.255437 
0.254674 0.253664 0.252723 0.252002 0.25216 0.25201 0.250212 0.248006 0.242925 
0.236758 0.22869 0.219738 0.194201 0.253482 0.253482 0.253702 0.253315 0.253031 
0.252871 0.252678 0.252444 0.252139 0.251767 0.251236 0.25056 0.249688 0.248713 
0.247967 0.247423 0.247147 0.246832 0.245755 0.245406 0.241744 0.235334 0.227053 
0.21784 0.194045 0.249061 0.249061 0.249295 0.249008 0.248767 0.248537 0.248229 
0.247821 0.247332 0.246758 0.246155 0.245527 0.244967 0.244494 0.244074 0.243592 
0.242621 0.241942 0.241679 0.242035 0.239644 0.233912 0.225027 0.216118 0.193658 
0.243899 0.243899 0.244095 0.243899 0.24363 0.243383 0.243048 0.242603 0.242083 
0.241541 0.241036 0.24069 0.240514 0.240456 0.240222 0.239715 0.238535 0.237765 
0.238143 0.238472 0.236793 0.232351 0.22288 0.214331 0.193098 0.237608 0.237608 
0.237745 0.237595 0.237448 0.237268 0.237056 0.236793 0.236478 0.236189 0.235994 
0.235943 0.236023 0.236133 0.235997 0.235622 0.234788 0.234296 0.235051 0.235185 
0.233735 0.230509 0.220804 0.21249 0.192447 0.230231 0.230231 0.23039 0.230372 
0.23034 0.230332 0.230311 0.230317 0.230387 0.230521 0.230735 0.231 0.231255 
0.231493 0.231521 0.231516 0.231346 0.231386 0.232256 0.232219 0.230843 0.228401 
0.219134 0.210776 0.19182 0.220135 0.220135 0.220587 0.22084 0.221221 0.221682 
0.222186 0.222722 0.22334 0.224076 0.224864 0.225638 0.226266 0.226757 0.227086 
0.227582 0.228206 0.228935 0.229905 0.229793 0.228404 0.226451 0.217772 0.209087 
0.191261 0.204358 0.204358 0.205741 0.207143 0.209094 0.211031 0.212913 0.214557 
0.216107 0.217595 0.219066 0.220415 0.22152 0.222423 0.223222 0.22428 0.225618 
0.226858 0.227836 0.227681 0.226429 0.224659 0.21664 0.207853 0.190823 0.384216 
0.36829 0.356663 0.346724 0.339164 0.333091 0.328113 0.323816 0.319852 0.316403 
0.312938 0.30805 0.302807 0.297844 0.289855 0.276888 0.267251 0.259359 0.249821 
0.242379 0.235921 0.221523 0.187047 0.17916 0.178534 0.332141 0.332141 0.344686 
0.340582 0.335521 0.330252 0.325716 0.321938 0.318396 0.315138 0.311718 0.306995 
0.301976 0.297333 0.289572 0.277032 0.267321 0.259374 0.24991 0.242447 0.236125 
0.222531 0.188017 0.179269 0.178525 0.279879 0.279879 0.299481 0.317555 0.32376 
0.323469 0.32107 0.318214 0.315475 0.312833 0.309933 0.305742 0.300995 0.296613 
0.289751 0.277737 0.267642 0.259455 0.250233 0.242664 0.236434 0.224125 0.189726 
0.17946 0.178506 0.252809 0.252809 0.261631 0.276301 0.295905 0.308831 0.313271 
0.313121 0.31146 0.309604 0.307647 0.304309 0.299759 0.295633 0.289968 0.278786 
0.268165 0.259632 0.250719 0.243012 0.236773 0.2257 0.192026 0.179738 0.17848 
0.252448 0.252448 0.249067 0.25037 0.260325 0.280056 0.295687 0.30479 0.306422 
0.305597 0.304388 0.302323 0.298474 0.294395 0.289882 0.280001 0.26893 0.259907 
0.251362 0.243487 0.237166 0.227401 0.195056 0.180162 0.178434 0.275391 0.275391 
0.27119 0.267745 0.2654 0.265829 0.275021 0.288271 0.297896 0.300878 0.300726 
0.2994 0.296599 0.292875 0.289325 0.281285 0.269868 0.260309 0.252174 0.24415 
0.237609 0.228623 0.198957 0.180869 0.178362 0.289937 0.289937 0.285215 0.280681 
0.276539 0.272731 0.270058 0.271705 0.282042 0.291409 0.295631 0.296224 0.294115 
0.290544 0.287904 0.282337 0.27113 0.260877 0.253179 0.245 0.237923 0.229775 
0.203873 0.182123 0.178234 0.292983 0.292983 0.289259 0.288798 0.28783 0.285669 
0.28208 0.278012 0.275635 0.278458 0.285485 0.290326 0.291403 0.288861 0.285911 
0.281771 0.27272 0.261931 0.25427 0.245961 0.23838 0.231155 0.209955 0.184338 
0.17797 0.296828 0.296828 0.293973 0.294927 0.294942 0.294584 0.292662 0.289127 
0.284318 0.28002 0.277766 0.281478 0.285319 0.286139 0.284036 0.280731 0.273588 
0.263386 0.255398 0.246909 0.23892 0.232121 0.216738 0.187753 0.177788 0.295269 
0.295269 0.293867 0.294522 0.294967 0.295199 0.29502 0.294179 0.291928 0.287969 
0.283146 0.278526 0.278101 0.280313 0.280437 0.278616 0.274197 0.265077 0.256409 
0.247797 0.239488 0.232864 0.222668 0.192942 0.178085 0.29424 0.29424 0.293202 
0.293705 0.294455 0.294934 0.295169 0.295099 0.294651 0.293307 0.290328 0.28537 
0.280269 0.276588 0.274937 0.274704 0.272892 0.266968 0.257434 0.248667 0.240259 
0.233583 0.225061 0.199643 0.179301 0.29202 0.29202 0.291277 0.291028 0.291219 
0.29151 0.291515 0.29131 0.290903 0.290286 0.289363 0.287677 0.283942 0.279222 
0.274781 0.270875 0.269372 0.266653 0.258734 0.249676 0.241201 0.234264 0.22758 
0.207245 0.18157 0.285017 0.285017 0.284554 0.284157 0.284014 0.283973 0.283894 
0.283648 0.283387 0.28318 0.28308 0.282844 0.282172 0.280169 0.276391 0.271468 
0.26678 0.26401 0.259008 0.250868 0.242353 0.234964 0.228752 0.214274 0.184548 
0.277019 0.277019 0.277069 0.27683 0.276885 0.276917 0.276979 0.276985 0.276996 
0.277006 0.276947 0.276847 0.276578 0.276066 0.274243 0.2717 0.267032 0.262233 
0.257913 0.251656 0.24364 0.235921 0.229509 0.219927 0.187672 0.27235 0.27235 
0.272742 0.272481 0.272508 0.272463 0.272493 0.272381 0.27223 0.271953 0.271576 
0.271165 0.270739 0.270496 0.270236 0.269532 0.266248 0.262 0.25698 0.251537 
0.244645 0.237117 0.23034 0.222123 0.190527 0.268154 0.268154 0.268548 0.26822 
0.268037 0.267863 0.267613 0.267324 0.26699 0.26663 0.266282 0.26599 0.26574 
0.265628 0.265379 0.264798 0.26311 0.26088 0.256458 0.251105 0.244984 0.238038 
0.230488 0.223027 0.192726 0.263189 0.263189 0.263529 0.263165 0.262995 0.262805 
0.262614 0.262337 0.262101 0.261862 0.261627 0.261389 0.261015 0.260514 0.259697 
0.258962 0.258487 0.257878 0.254925 0.250622 0.244556 0.238155 0.230065 0.222061 
0.193901 0.258537 0.258537 0.258871 0.258592 0.258468 0.258406 0.258291 0.258183 
0.258017 0.257835 0.257523 0.256995 0.256196 0.255162 0.254152 0.253431 0.253548 
0.253283 0.251343 0.249294 0.243968 0.237429 0.229208 0.220272 0.194203 0.254652 
0.254652 0.254949 0.254719 0.254646 0.254564 0.254439 0.254228 0.253971 0.253571 
0.25305 0.252338 0.25146 0.250501 0.249766 0.249176 0.248751 0.24825 0.247054 
0.246694 0.242891 0.236246 0.2278 0.218562 0.194159 0.250606 0.250606 0.250851 
0.250726 0.25059 0.250445 0.250187 0.249831 0.249355 0.248817 0.248203 0.247607 
0.247062 0.246634 0.24623 0.245634 0.244469 0.243553 0.243138 0.243392 0.240846 
0.234952 0.225906 0.216884 0.193844 0.245888 0.245888 0.246094 0.245953 0.245797 
0.245621 0.245316 0.244915 0.244432 0.24391 0.243446 0.243107 0.242961 0.242896 
0.24262 0.241952 0.240583 0.239598 0.239741 0.239936 0.23804 0.233493 0.223847 
0.215096 0.193328 0.240371 0.240371 0.240475 0.240375 0.240208 0.240098 0.239921 
0.239654 0.239348 0.239056 0.238838 0.238769 0.238799 0.238846 0.238567 0.237995 
0.236982 0.236329 0.236808 0.236745 0.23508 0.231766 0.221863 0.213257 0.192711 
0.23426 0.23426 0.234381 0.234318 0.23426 0.234232 0.234182 0.234168 0.234146 
0.234189 0.234269 0.234382 0.234485 0.234534 0.234329 0.234083 0.233716 0.233589 
0.234191 0.233883 0.232299 0.229759 0.220185 0.211635 0.192107 0.22659 0.22659 
0.22683 0.226876 0.226992 0.22718 0.227424 0.227692 0.228042 0.228464 0.228972 
0.229456 0.22979 0.230011 0.230053 0.230255 0.230604 0.231121 0.231865 0.231464 
0.229906 0.22778 0.218715 0.210056 0.191567 0.216926 0.216926 0.217713 0.21838 
0.219266 0.220042 0.220858 0.221669 0.222497 0.223363 0.224234 0.225066 0.225701 
0.226159 0.226533 0.227236 0.228273 0.229274 0.229935 0.229408 0.227958 0.226082 
0.217838 0.208927 0.19114 0.379376 0.37111 0.363329 0.356013 0.349213 0.343046 
0.337418 0.332182 0.327276 0.322791 0.317737 0.311138 0.305406 0.299655 0.290001 
0.275708 0.266831 0.258815 0.249116 0.242024 0.234828 0.215012 0.183871 0.178919 
0.178549 0.361993 0.361993 0.360695 0.354431 0.34756 0.341264 0.335661 0.330726 
0.326028 0.321576 0.316489 0.31024 0.304721 0.299272 0.289805 0.276128 0.267022 
0.2589 0.24924 0.242095 0.235101 0.216486 0.18449 0.178968 0.178546 0.340686 
0.340686 0.343987 0.346108 0.342917 0.338015 0.332843 0.327849 0.323422 0.319455 
0.314992 0.309297 0.303926 0.298665 0.290299 0.277022 0.26734 0.259072 0.24964 
0.242274 0.235495 0.218948 0.185659 0.179069 0.178539 0.308904 0.308904 0.310566 
0.318987 0.326518 0.32897 0.327256 0.323877 0.319949 0.316409 0.313041 0.308206 
0.3028 0.297812 0.290837 0.27829 0.267789 0.25931 0.250214 0.24255 0.235961 
0.221739 0.187451 0.179239 0.178525 0.275941 0.275941 0.277139 0.28106 0.291503 
0.303968 0.313391 0.316525 0.315325 0.312749 0.310073 0.306528 0.301649 0.296822 
0.291168 0.279834 0.268508 0.259611 0.250913 0.242956 0.236484 0.224509 0.190081 
0.179522 0.178501 0.280766 0.280766 0.278933 0.276554 0.276073 0.280622 0.289945 
0.300345 0.306716 0.307747 0.306487 0.303973 0.299925 0.295643 0.291206 0.281574 
0.269506 0.260063 0.251795 0.243557 0.237034 0.226902 0.193801 0.179995 0.178448 
0.286582 0.286582 0.283765 0.280823 0.278524 0.275968 0.275576 0.279219 0.289305 
0.297322 0.300897 0.300763 0.297878 0.293567 0.290338 0.283319 0.270971 0.260757 
0.252924 0.244359 0.237577 0.228551 0.198691 0.180839 0.178371 0.297754 0.297754 
0.294412 0.293218 0.292283 0.290105 0.286663 0.283499 0.281499 0.28433 0.289825 
0.294293 0.294937 0.292012 0.288509 0.283464 0.272877 0.261987 0.254169 0.245423 
0.238251 0.23021 0.204812 0.182462 0.178187 0.304332 0.304332 0.301407 0.299647 
0.299159 0.298225 0.29626 0.292825 0.288676 0.284694 0.282319 0.285286 0.288253 
0.288808 0.286409 0.282636 0.274309 0.263613 0.255482 0.24659 0.238811 0.231543 
0.212214 0.185292 0.177879 0.303353 0.303353 0.29986 0.299897 0.298978 0.298943 
0.298384 0.297609 0.295625 0.292317 0.287835 0.283241 0.281746 0.282825 0.282302 
0.280354 0.275471 0.265651 0.256578 0.247672 0.239421 0.232482 0.219732 0.189825 
0.177848 0.300465 0.300465 0.297809 0.298154 0.297947 0.298235 0.298248 0.298027 
0.297534 0.296365 0.293853 0.289373 0.284366 0.280091 0.277104 0.276253 0.274261 
0.267737 0.257727 0.248651 0.240219 0.233438 0.224172 0.196315 0.178605 0.293532 
0.293532 0.291896 0.292087 0.292381 0.29236 0.292312 0.291965 0.291466 0.290841 
0.290125 0.288957 0.2862 0.282381 0.27803 0.273174 0.270879 0.267565 0.259102 
0.249844 0.24112 0.234273 0.227138 0.20418 0.180535 0.285326 0.285326 0.284107 
0.283867 0.283916 0.283958 0.284029 0.283959 0.283792 0.283644 0.283666 0.283558 
0.283069 0.281584 0.278366 0.273976 0.268933 0.265229 0.259655 0.251195 0.242374 
0.234942 0.228178 0.211847 0.183427 0.278688 0.278688 0.277993 0.277788 0.277706 
0.27778 0.277914 0.277956 0.278012 0.278038 0.277952 0.277754 0.277379 0.276874 