# vtk DataFile Version 5.1
vtk output
ASCII
DATASET STRUCTURED_GRID
DIMENSIONS 12 25 55
POINTS 16500 float
1.44059 3 -0.5 1.44059 2.66947 -0.5 1.44059 2.4101 -0.5 
1.44059 2.20612 -0.5 1.44059 2.04511 -0.5 1.44059 1.91728 -0.5 
1.44059 1.81483 -0.5 1.44059 1.73155 -0.5 1.44059 1.66236 -0.5 
1.44059 1.60304 -0.5 1.44059 1.55 -0.5 1.44059 1.5 -0.5 
1.44307 3 -0.500329 1.44314 2.66976 -0.500339 1.44321 2.41061 -0.500347 
1.44325 2.20678 -0.500353 1.44329 2.04587 -0.500358 1.44332 1.91811 -0.500362 
1.44334 1.81571 -0.500365 1.44336 1.73245 -0.500368 1.44338 1.66328 -0.50037 
1.44339 1.60397 -0.500372 1.44341 1.55093 -0.500374 1.44342 1.50093 -0.500375 
1.44628 3 -0.500754 1.44644 2.67013 -0.500776 1.44656 2.41125 -0.500792 
1.44666 2.20761 -0.500805 1.44674 2.04683 -0.500816 1.4468 1.91916 -0.500824 
1.44685 1.81682 -0.50083 1.44689 1.7336 -0.500836 1.44692 1.66444 -0.50084 
1.44695 1.60514 -0.500844 1.44698 1.55211 -0.500847 1.447 1.50211 -0.50085 
1.45041 3 -0.501303 1.45066 2.6706 -0.501336 1.45085 2.41206 -0.501361 
1.451 2.20866 -0.501381 1.45112 2.04805 -0.501397 1.45121 1.92048 -0.501409 
1.45129 1.81822 -0.501419 1.45135 1.73504 -0.501428 1.4514 1.66591 -0.501434 
1.45145 1.60663 -0.50144 1.45149 1.55359 -0.501445 1.45152 1.50359 -0.50145 
1.45572 3 -0.502007 1.45604 2.6712 -0.50205 1.4563 2.41308 -0.502084 
1.4565 2.20998 -0.502111 1.45666 2.04958 -0.502132 1.45678 1.92215 -0.502148 
1.45688 1.81998 -0.502162 1.45697 1.73686 -0.502173 1.45704 1.66775 -0.502182 
1.45709 1.60849 -0.50219 1.45715 1.55546 -0.502196 1.4572 1.50546 -0.502203 
1.46247 3 -0.502903 1.46287 2.67194 -0.502955 1.46318 2.41435 -0.502996 
1.46342 2.21163 -0.503029 1.46361 2.05149 -0.503054 1.46377 1.92423 -0.503075 
1.46389 1.82217 -0.503091 1.46399 1.73912 -0.503104 1.46407 1.67006 -0.503115 
1.46414 1.61081 -0.503125 1.46421 1.55778 -0.503133 1.46427 1.50778 -0.503141 
1.47099 3 -0.504033 1.47143 2.67287 -0.504092 1.47178 2.41594 -0.504138 
1.47206 2.21367 -0.504175 1.47227 2.05385 -0.504203 1.47245 1.92681 -0.504226 
1.47258 1.82488 -0.504245 1.4727 1.74191 -0.504259 1.47279 1.6729 -0.504272 
1.47287 1.61367 -0.504282 1.47294 1.56066 -0.504292 1.47301 1.51066 -0.504301 
1.48162 3 -0.505444 1.48208 2.674 -0.505504 1.48243 2.41788 -0.505552 
1.48272 2.21618 -0.505589 1.48294 2.05674 -0.505619 1.48312 1.92996 -0.505642 
1.48326 1.8282 -0.505661 1.48338 1.74534 -0.505676 1.48347 1.67638 -0.505689 
1.48356 1.61718 -0.5057 1.48363 1.56417 -0.50571 1.4837 1.51417 -0.505719 
1.4947 3 -0.507178 1.49512 2.67538 -0.507234 1.49544 2.42023 -0.507277 
1.4957 2.21921 -0.507312 1.49591 2.06024 -0.507339 1.49607 1.93377 -0.507361 
1.4962 1.83221 -0.507378 1.49631 1.74947 -0.507392 1.4964 1.68058 -0.507404 
1.49648 1.62141 -0.507414 1.49654 1.56842 -0.507423 1.49661 1.51842 -0.507432 
1.5105 3 -0.509275 1.51082 2.67703 -0.509317 1.51107 2.42304 -0.509351 
1.51127 2.22283 -0.509377 1.51143 2.06441 -0.509398 1.51155 1.93831 -0.509414 
1.51165 1.83699 -0.509427 1.51173 1.75439 -0.509438 1.5118 1.68558 -0.509447 
1.51186 1.62645 -0.509455 1.51191 1.57346 -0.509462 1.51196 1.52346 -0.509468 
1.52922 3 -0.511758 1.52936 2.67896 -0.511777 1.52947 2.42633 -0.511792 
1.52956 2.22706 -0.511804 1.52964 2.06928 -0.511814 1.52969 1.94361 -0.511821 
1.52974 1.84256 -0.511827 1.52977 1.76013 -0.511832 1.5298 1.69141 -0.511836 
1.52983 1.63233 -0.51184 1.52986 1.57936 -0.511843 1.52988 1.52936 -0.511846 
1.55083 3 -0.514625 1.55073 2.68117 -0.514612 1.55065 2.43009 -0.514601 
1.55058 2.2319 -0.514593 1.55053 2.07485 -0.514586 1.55049 1.94967 -0.51458 
1.55046 1.84893 -0.514576 1.55043 1.76669 -0.514573 1.55041 1.69808 -0.51457 
1.55039 1.63904 -0.514567 1.55037 1.58609 -0.514565 1.55036 1.53609 -0.514563 
1.57509 3 -0.517844 1.57468 2.68364 -0.51779 1.57436 2.43429 -0.517747 
1.5741 2.2373 -0.517713 1.5739 2.08107 -0.517686 1.57373 1.95643 -0.517664 
1.57361 1.85605 -0.517647 1.5735 1.77402 -0.517633 1.57341 1.70552 -0.517621 
1.57333 1.64654 -0.517611 1.57326 1.5936 -0.517601 1.5732 1.5436 -0.517593 
1.60147 3 -0.521344 1.60072 2.68633 -0.521244 1.60012 2.43886 -0.521165 
1.59965 2.24316 -0.521103 1.59928 2.08782 -0.521053 1.59898 1.96377 -0.521014 
1.59874 1.86377 -0.520982 1.59855 1.78197 -0.520956 1.59838 1.7136 -0.520934 
1.59824 1.65467 -0.520915 1.59811 1.60175 -0.520898 1.59799 1.55175 -0.520882 
1.62918 3 -0.52502 1.62809 2.68916 -0.524875 1.62723 2.44367 -0.524761 
1.62654 2.24934 -0.52467 1.626 2.09494 -0.524598 1.62557 1.97151 -0.524541 
1.62522 1.8719 -0.524494 1.62493 1.79034 -0.524456 1.62469 1.72211 -0.524424 
1.62448 1.66324 -0.524397 1.6243 1.61034 -0.524372 1.62412 1.56034 -0.524349 
1.65724 3 -0.528742 1.65586 2.69204 -0.52856 1.65477 2.44857 -0.528415 
1.65391 2.25565 -0.5283 1.65322 2.10221 -0.528209 1.65267 1.97941 -0.528136 
1.65222 1.88021 -0.528077 1.65186 1.7989 -0.528028 1.65155 1.7308 -0.527988 
1.65129 1.672 -0.527953 1.65105 1.61912 -0.527921 1.65083 1.56912 -0.527892 
1.68463 3 -0.532376 1.68305 2.69488 -0.532167 1.6818 2.45342 -0.532001 
1.68081 2.26189 -0.531869 1.68002 2.10939 -0.531764 1.67938 1.98723 -0.53168 
1.67887 1.88844 -0.531613 1.67845 1.80737 -0.531557 1.6781 1.73941 -0.53151 
1.67779 1.68068 -0.53147 1.67752 1.62782 -0.531433 1.67726 1.57781 -0.531399 
1.71042 3 -0.535798 1.70875 2.6976 -0.535577 1.70744 2.45805 -0.535402 
1.70639 2.26786 -0.535263 1.70555 2.11627 -0.535152 1.70488 1.99472 -0.535063 
1.70434 1.89632 -0.534991 1.70389 1.8155 -0.534932 1.70352 1.74767 -0.534882 
1.70319 1.689 -0.534839 1.7029 1.63616 -0.534801 1.70263 1.58615 -0.534764 
1.7339 3 -0.538912 1.73226 2.70011 -0.538696 1.73097 2.46234 -0.538525 
1.72994 2.2734 -0.538388 1.72912 2.12266 -0.538279 1.72846 2.00169 -0.538192 
1.72793 1.90365 -0.538121 1.72749 1.82306 -0.538063 1.72712 1.75536 -0.538014 
1.7268 1.69674 -0.537972 1.72652 1.64392 -0.537933 1.72624 1.59392 -0.537897 
1.75461 3 -0.541661 1.75313 2.70237 -0.541464 1.75195 2.46621 -0.541308 
1.75101 2.27839 -0.541183 1.75026 2.12844 -0.541084 1.74966 2.00798 -0.541004 
1.74917 1.91029 -0.540939 1.74877 1.8299 -0.540886 1.74843 1.76231 -0.540841 
1.74814 1.70376 -0.540802 1.74788 1.65095 -0.540767 1.74763 1.60095 -0.540734 
1.77241 3 -0.544022 1.77115 2.70435 -0.543855 1.77016 2.46961 -0.543723 
1.76936 2.28279 -0.543618 1.76873 2.13353 -0.543534 1.76822 2.01353 -0.543467 
1.76781 1.91614 -0.543412 1.76747 1.83593 -0.543366 1.76718 1.76845 -0.543329 
1.76693 1.70994 -0.543296 1.76671 1.65716 -0.543266 1.7665 1.60715 -0.543238 
1.78733 3 -0.546002 1.78637 2.70604 -0.545874 1.7856 2.47252 -0.545772 
1.78499 2.28657 -0.545691 1.78451 2.1379 -0.545627 1.78411 2.01831 -0.545575 
1.78379 1.92118 -0.545533 1.78353 1.84113 -0.545498 1.78331 1.77374 -0.545468 
1.78312 1.71528 -0.545443 1.78295 1.66251 -0.54542 1.78278 1.61251 -0.545398 
1.79961 3 -0.54763 1.79896 2.70747 -0.547545 1.79845 2.47498 -0.547477 
1.79805 2.28975 -0.547423 1.79772 2.1416 -0.54738 1.79746 2.02235 -0.547345 
1.79725 1.92544 -0.547317 1.79707 1.84554 -0.547294 1.79692 1.77822 -0.547274 
1.79679 1.7198 -0.547257 1.79668 1.66704 -0.547242 1.79657 1.61704 -0.547227 
1.80954 3 -0.548948 1.80922 2.70864 -0.548906 1.80897 2.47701 -0.548873 
1.80877 2.2924 -0.548846 1.80861 2.14467 -0.548825 1.80848 2.02571 -0.548808 
1.80838 1.92899 -0.548794 1.80829 1.8492 -0.548782 1.80822 1.78195 -0.548773 
1.80816 1.72356 -0.548764 1.8081 1.67081 -0.548757 1.80804 1.62081 -0.54875 
1.81747 3 -0.55 1.81747 2.7096 -0.55 1.81747 2.47868 -0.55 
1.81747 2.29456 -0.55 1.81747 2.14718 -0.55 1.81747 2.02846 -0.55 
1.81747 1.9319 -0.55 1.81747 1.85221 -0.55 1.81747 1.78502 -0.55 
1.81747 1.72665 -0.55 1.81747 1.67391 -0.55 1.81747 1.62391 -0.55 
1.44059 3 -0.497 1.44059 2.66947 -0.497 1.44059 2.4101 -0.497 
1.44059 2.20612 -0.497 1.44059 2.04511 -0.497 1.44059 1.91728 -0.497 
1.44059 1.81483 -0.497 1.44059 1.73155 -0.497 1.44059 1.66236 -0.497 
1.44059 1.60304 -0.497 1.44059 1.55 -0.497 1.44059 1.5 -0.497 
1.44307 3 -0.497329 1.44314 2.66976 -0.497339 1.44321 2.41061 -0.497347 
1.44325 2.20678 -0.497353 1.44329 2.04587 -0.497358 1.44332 1.91811 -0.497362 
1.44334 1.81571 -0.497365 1.44336 1.73245 -0.497368 1.44338 1.66328 -0.49737 
1.44339 1.60397 -0.497372 1.44341 1.55093 -0.497374 1.44342 1.50093 -0.497375 
1.44628 3 -0.497755 1.44644 2.67013 -0.497776 1.44656 2.41125 -0.497792 
1.44666 2.20761 -0.497805 1.44674 2.04683 -0.497816 1.4468 1.91916 -0.497824 
1.44685 1.81682 -0.49783 1.44689 1.7336 -0.497836 1.44692 1.66444 -0.49784 
1.44695 1.60514 -0.497844 1.44698 1.55211 -0.497847 1.447 1.50211 -0.49785 
1.45041 3 -0.498303 1.45066 2.6706 -0.498336 1.45085 2.41206 -0.498361 
1.451 2.20866 -0.498381 1.45112 2.04805 -0.498397 1.45121 1.92048 -0.498409 
1.45129 1.81822 -0.498419 1.45135 1.73504 -0.498428 1.4514 1.66591 -0.498434 
1.45145 1.60663 -0.49844 1.45149 1.55359 -0.498445 1.45152 1.50359 -0.49845 
1.45572 3 -0.499007 1.45604 2.6712 -0.49905 1.4563 2.41308 -0.499084 
1.4565 2.20998 -0.499111 1.45666 2.04958 -0.499132 1.45678 1.92215 -0.499148 
1.45688 1.81998 -0.499162 1.45697 1.73686 -0.499173 1.45704 1.66775 -0.499182 
1.45709 1.60849 -0.49919 1.45715 1.55546 -0.499196 1.4572 1.50546 -0.499203 
1.46247 3 -0.499903 1.46287 2.67194 -0.499955 1.46318 2.41435 -0.499997 
1.46342 2.21163 -0.500029 1.46361 2.05149 -0.500054 1.46377 1.92423 -0.500075 
1.46389 1.82217 -0.500091 1.46399 1.73912 -0.500104 1.46407 1.67006 -0.500115 
1.46414 1.61081 -0.500125 1.46421 1.55778 -0.500133 1.46427 1.50778 -0.500141 
1.47099 3 -0.501033 1.47143 2.67287 -0.501092 1.47178 2.41594 -0.501138 
1.47206 2.21367 -0.501175 1.47227 2.05385 -0.501203 1.47245 1.92681 -0.501226 
1.47258 1.82488 -0.501244 1.4727 1.74191 -0.501259 1.47279 1.6729 -0.501272 
1.47287 1.61367 -0.501283 1.47294 1.56066 -0.501292 1.47301 1.51066 -0.501301 
1.48162 3 -0.502444 1.48208 2.674 -0.502504 1.48243 2.41788 -0.502552 
1.48272 2.21618 -0.502589 1.48294 2.05674 -0.502619 1.48312 1.92996 -0.502642 
1.48326 1.8282 -0.502661 1.48338 1.74534 -0.502676 1.48347 1.67638 -0.502689 
[...]
POINT_DATA 16500
FIELD FieldData 5
pressure 1 16500 float
0.178573 0.178573 0.178573 0.178573 0.178573 0.178573 0.178573 0.178573 0.178573 
0.178573 0.178573 0.178573 0.178573 0.178573 0.178573 0.178573 0.178573 0.178573 
0.178573 0.178573 0.178573 0.178573 0.178573 0.178573 0.178573 0.178573 0.178573 
0.178573 0.178573 0.178573 0.178573 0.178573 0.178573 0.178573 0.178573 0.178573 
0.178573 0.178573 0.178573 0.178573 0.178573 0.178573 0.178573 0.178573 0.178573 
0.178573 0.178573 0.178573 0.178573 0.178573 0.178573 0.178573 0.178573 0.178573 
0.178573 0.178573 0.178573 0.178573 0.178573 0.178573 0.178573 0.178573 0.178573 
0.178573 0.178573 0.178573 0.178573 0.178573 0.178573 0.178573 0.178573 0.178573 
0.178573 0.178573 0.178573 0.178573 0.178573 0.178573 0.178573 0.178573 0.178573 
0.178573 0.178573 0.178573 0.178573 0.178573 0.178573 0.178573 0.178573 0.178573 
0.178573 0.178573 0.178573 0.178573 0.178573 0.178573 0.178573 0.178573 0.178573 
0.178573 0.178573 0.178573 0.178573 0.178573 0.178573 0.178573 0.178573 0.178573 
0.178573 0.178573 0.178573 0.178573 0.178573 0.178573 0.178573 0.178573 0.178573 
0.178573 0.178573 0.178573 0.178573 0.178573 0.178573 0.178573 0.178573 0.178573 
0.178573 0.178573 0.178573 0.178573 0.178573 0.178573 0.178573 0.178573 0.178573 
0.178573 0.178573 0.178573 0.178573 0.178573 0.178573 0.178573 0.178573 0.178573 
0.178573 0.178573 0.178573 0.178573 0.178573 0.178573 0.178573 0.178573 0.178573 
0.178573 0.178573 0.178573 0.178573 0.178573 0.178573 0.178573 0.178573 0.178573 
0.178573 0.178573 0.178573 0.178573 0.178573 0.178573 0.178573 0.178573 0.178573 
0.178573 0.178573 0.178573 0.178573 0.178573 0.178573 0.178573 0.178573 0.178574 
0.178573 0.178573 0.178573 0.178573 0.178573 0.178573 0.178573 0.178573 0.178573 
0.178573 0.178573 0.178575 0.178573 0.178573 0.178573 0.178573 0.178573 0.178573 
0.178573 0.178573 0.178573 0.178573 0.178574 0.178573 0.178573 0.178573 0.178573 
0.178573 0.178573 0.178573 0.178573 0.178573 0.178573 0.178573 0.178574 0.178571 
0.178573 0.178573 0.178573 0.178573 0.178573 0.178573 0.178573 0.178573 0.178573 
0.178573 0.178575 0.178567 0.178573 0.178573 0.178573 0.178573 0.178573 0.178573 
0.178573 0.178573 0.178573 0.178574 0.178574 0.178564 0.178573 0.178573 0.178573 
0.178573 0.178573 0.178573 0.178573 0.178573 0.178573 0.178574 0.178572 0.178565 
0.178573 0.178573 0.178573 0.178573 0.178573 0.178573 0.178573 0.178573 0.178573 
0.178575 0.17857 0.178568 0.178573 0.178573 0.178573 0.178573 0.178573 0.178573 
0.178573 0.178573 0.178573 0.178575 0.178568 0.178571 0.178573 0.178573 0.178573 
0.178573 0.178573 0.178573 0.178573 0.178573 0.178573 0.178575 0.178567 0.178577 
0.178573 0.178573 0.178573 0.178573 0.178573 0.178573 0.178572 0.178573 0.178574 
0.178575 0.178565 0.178581 0.178573 0.178573 0.178573 0.178573 0.178573 0.178573 
0.178573 0.178573 0.178573 0.178573 0.178573 0.178573 0.178573 0.178573 0.178573 
0.178573 0.178573 0.178573 0.178573 0.178573 0.178573 0.178573 0.178573 0.178573 
0.178573 0.178573 0.178573 0.178573 0.178573 0.178573 0.178573 0.178573 0.178573 
0.178573 0.178573 0.178573 0.178573 0.178573 0.178573 0.178573 0.178573 0.178573 
0.178573 0.178573 0.178573 0.178573 0.178573 0.178573 0.178573 0.178573 0.178573 
0.178573 0.178573 0.178573 0.178573 0.178573 0.178573 0.178573 0.178573 0.178573 
0.178573 0.178573 0.178573 0.178573 0.178573 0.178573 0.178573 0.178573 0.178573 
0.178573 0.178573 0.178573 0.178573 0.178573 0.178573 0.178573 0.178573 0.178573 
0.178573 0.178573 0.178573 0.178573 0.178573 0.178573 0.178573 0.178573 0.178573 
0.178573 0.178573 0.178573 0.178573 0.178573 0.178573 0.178573 0.178573 0.178573 
0.178573 0.178573 0.178573 0.178573 0.178573 0.178573 0.178573 0.178573 0.178573 
0.178573 0.178573 0.178573 0.178573 0.178573 0.178573 0.178573 0.178573 0.178573 
0.178573 0.178573 0.178573 0.178573 0.178573 0.178573 0.178573 0.178573 0.178573 
0.178573 0.178573 0.178573 0.178573 0.178573 0.178573 0.178573 0.178573 0.178573 
0.178573 0.178573 0.178573 0.178573 0.178573 0.178573 0.178573 0.178573 0.178573 
0.178573 0.178573 0.178573 0.178573 0.178573 0.178573 0.178573 0.178573 0.178573 
0.178573 0.178573 0.178573 0.178573 0.178573 0.178573 0.178573 0.178573 0.178573 
0.178573 0.178573 0.178573 0.178573 0.178573 0.178573 0.178573 0.178573 0.178573 
0.178573 0.178573 0.178573 0.178573 0.178573 0.178573 0.178573 0.178573 0.178573 
0.178573 0.178573 0.178574 0.178573 0.178573 0.178573 0.178573 0.178573 0.178573 
0.178573 0.178573 0.178573 0.178573 0.178573 0.178575 0.178573 0.178573 0.178573 
0.178573 0.178573 0.178573 0.178573 0.178573 0.178573 0.178573 0.178574 0.178573 
0.178573 0.178573 0.178573 0.178573 0.178573 0.178573 0.178573 0.178573 0.178573 
0.178573 0.178574 0.17857 0.178573 0.178573 0.178573 0.178573 0.178573 0.178573 
0.178573 0.178573 0.178573 0.178573 0.178575 0.178566 0.178573 0.178573 0.178573 
0.178573 0.178573 0.178573 0.178573 0.178573 0.178573 0.178574 0.178574 0.178565 
0.178573 0.178573 0.178573 0.178573 0.178573 0.178573 0.178573 0.178573 0.178573 
0.178574 0.178572 0.178565 0.178573 0.178573 0.178573 0.178573 0.178573 0.178573 
0.178573 0.178573 0.178573 0.178575 0.17857 0.178568 0.178573 0.178573 0.178573 
0.178573 0.178573 0.178573 0.178573 0.178573 0.178573 0.178575 0.178568 0.178572 
0.178573 0.178573 0.178573 0.178573 0.178573 0.178573 0.178573 0.178573 0.178573 
0.178575 0.178567 0.178578 0.178573 0.178573 0.178573 0.178573 0.178573 0.178573 
0.178572 0.178573 0.178574 0.178575 0.178565 0.178582 0.178573 0.178573 0.178573 
0.178573 0.178573 0.178573 0.178573 0.178573 0.178573 0.178573 0.178573 0.178573 
0.178573 0.178573 0.178573 0.178573 0.178573 0.178573 0.178573 0.178573 0.178573 
0.178573 0.178573 0.178573 0.178573 0.178573 0.178573 0.178573 0.178573 0.178573 
0.178573 0.178573 0.178573 0.178573 0.178573 0.178573 0.178573 0.178573 0.178573 
0.178573 0.178573 0.178573 0.178573 0.178573 0.178573 0.178573 0.178573 0.178573 
0.178573 0.178573 0.178573 0.178573 0.178573 0.178573 0.178573 0.178573 0.178573 
0.178573 0.178573 0.178573 0.178573 0.178573 0.178573 0.178573 0.178573 0.178573 
0.178573 0.178573 0.178573 0.178573 0.178573 0.178573 0.178573 0.178573 0.178573 
0.178573 0.178573 0.178573 0.178573 0.178573 0.178573 0.178573 0.178573 0.178573 
0.178573 0.178573 0.178573 0.178573 0.178573 0.178573 0.178573 0.178573 0.178573 
0.178573 0.178573 0.178573 0.178573 0.178573 0.178573 0.178573 0.178573 0.178573 
0.178573 0.178573 0.178573 0.178573 0.178573 0.178573 0.178573 0.178573 0.178573 
0.178573 0.178573 0.178573 0.178573 0.178573 0.178573 0.178573 0.178573 0.178573 
0.178573 0.178573 0.178573 0.178573 0.178573 0.178573 0.178573 0.178573 0.178573 
0.178573 0.178573 0.178573 0.178573 0.178573 0.178573 0.178573 0.178573 0.178573 
0.178573 0.178573 0.178573 0.178573 0.178573 0.178573 0.178573 0.178573 0.178573 
0.178573 0.178573 0.178573 0.178573 0.178573 0.178573 0.178573 0.178573 0.178573 
0.178573 0.178573 0.178573 0.178573 0.178573 0.178573 0.178573 0.178573 0.178573 
0.178573 0.178573 0.178573 0.178573 0.178573 0.178573 0.178573 0.178573 0.178573 
0.178573 0.178573 0.178573 0.178573 0.178573 0.178574 0.178573 0.178573 0.178573 
0.178573 0.178573 0.178573 0.178573 0.178573 0.178573 0.178573 0.178573 0.178575 
0.178573 0.178573 0.178573 0.178573 0.178573 0.178573 0.178573 0.178573 0.178573 
0.178573 0.178574 0.178573 0.178573 0.178573 0.178573 0.178573 0.178573 0.178573 
0.178573 0.178573 0.178573 0.178573 0.178574 0.17857 0.178573 0.178573 0.178573 
0.178573 0.178573 0.178573 0.178573 0.178573 0.178573 0.178573 0.178575 0.178566 
0.178573 0.178573 0.178573 0.178573 0.178573 0.178573 0.178573 0.178573 0.178573 
0.178574 0.178574 0.178565 0.178573 0.178573 0.178573 0.178573 0.178573 0.178573 
0.178573 0.178573 0.178573 0.178574 0.178572 0.178565 0.178573 0.178573 0.178573 
0.178573 0.178573 0.178573 0.178573 0.178573 0.178573 0.178575 0.17857 0.178569 
0.178573 0.178573 0.178573 0.178573 0.178573 0.178573 0.178573 0.178573 0.178573 
0.178575 0.178568 0.178572 0.178573 0.178573 0.178573 0.178573 0.178573 0.178573 
0.178573 0.178573 0.178573 0.178575 0.178566 0.178579 0.178573 0.178573 0.178573 
0.178573 0.178573 0.178573 0.178572 0.178573 0.178574 0.178575 0.178565 0.178583 
0.178573 0.178573 0.178573 0.178573 0.178573 0.178573 0.178573 0.178573 0.178573 
0.178573 0.178573 0.178573 0.178573 0.178573 0.178573 0.178573 0.178573 0.178573 
0.178573 0.178573 0.178573 0.178573 0.178573 0.178573 0.178573 0.178573 0.178573 
0.178573 0.178573 0.178573 0.178573 0.178573 0.178573 0.178573 0.178573 0.178573 
0.178573 0.178573 0.178573 0.178573 0.178573 0.178573 0.178573 0.178573 0.178573 
0.178573 0.178573 0.178573 0.178573 0.178573 0.178573 0.178573 0.178573 0.178573 
0.178573 0.178573 0.178573 0.178573 0.178573 0.178573 0.178573 0.178573 0.178573 
0.178573 0.178573 0.178573 0.178573 0.178573 0.178573 0.178573 0.178573 0.178573 
0.178573 0.178573 0.178573 0.178573 0.178573 0.178573 0.178573 0.178573 0.178573 
0.178573 0.178573 0.178573 0.178573 0.178573 0.178573 0.178573 0.178573 0.178573 
0.178573 0.178573 0.178573 0.178573 0.178573 0.178573 0.178573 0.178573 0.178573 
0.178573 0.178573 0.178573 0.178573 0.178573 0.178573 0.178573 0.178573 0.178573 
0.178573 0.178573 0.178573 0.178573 0.178573 0.178573 0.178573 0.178573 0.178573 
0.178573 0.178573 0.178573 0.178573 0.178573 0.178573 0.178573 0.178573 0.178573 
0.178573 0.178573 0.178573 0.178573 0.178573 0.178573 0.178573 0.178573 0.178573 
0.178573 0.178573 0.178573 0.178573 0.178573 0.178573 0.178573 0.178573 0.178573 
0.178573 0.178573 0.178573 0.178573 0.178573 0.178573 0.178573 0.178573 0.178573 
0.178573 0.178573 0.178573 0.178573 0.178573 0.178573 0.178573 0.178573 0.178573 
0.178573 0.178573 0.178573 0.178573 0.178573 0.178573 0.178573 0.178573 0.178573 
0.178573 0.178573 0.178573 0.178573 0.178573 0.178573 0.178573 0.178573 0.178574 
0.178573 0.178573 0.178573 0.178573 0.178573 0.178573 0.178573 0.178573 0.178573 
0.178573 0.178573 0.178574 0.178573 0.178573 0.178573 0.178573 0.178573 0.178573 
0.178573 0.178573 0.178573 0.178573 0.178574 0.178573 0.178573 0.178573 0.178573 
0.178573 0.178573 0.178573 0.178573 0.178573 0.178573 0.178573 0.178574 0.17857 
0.178573 0.178573 0.178573 0.178573 0.178573 0.178573 0.178573 0.178573 0.178573 
0.178573 0.178575 0.178566 0.178573 0.178573 0.178573 0.178573 0.178573 0.178573 
0.178573 0.178573 0.178573 0.178574 0.178574 0.178565 0.178573 0.178573 0.178573 
0.178573 0.178573 0.178573 0.178573 0.178573 0.178573 0.178574 0.178572 0.178566 
0.178573 0.178573 0.178573 0.178573 0.178573 0.178573 0.178573 0.178573 0.178573 
0.178575 0.17857 0.17857 0.178573 0.178573 0.178573 0.178573 0.178573 0.178573 
0.178573 0.178573 0.178573 0.178575 0.178568 0.178573 0.178573 0.178573 0.178573 
0.178573 0.178573 0.178573 0.178573 0.178573 0.178573 0.178575 0.178566 0.178581 
0.178573 0.178573 0.178573 0.178573 0.178573 0.178573 0.178572 0.178573 0.178574 
0.178575 0.178565 0.178584 0.178573 0.178573 0.178573 0.178573 0.178573 0.178573 
0.178573 0.178573 0.178573 0.178573 0.178573 0.178573 0.178573 0.178573 0.178573 
0.178573 0.178573 0.178573 0.178573 0.178573 0.178573 0.178573 0.178573 0.178573 
0.178573 0.178573 0.178573 0.178573 0.178573 0.178573 0.178573 0.178573 0.178573 
0.178573 0.178573 0.178573 0.178573 0.178573 0.178573 0.178573 0.178573 0.178573 
0.178573 0.178573 0.178573 0.178573 0.178573 0.178573 0.178573 0.178573 0.178573 
0.178573 0.178573 0.178573 0.178573 0.178573 0.178573 0.178573 0.178573 0.178573 
0.178573 0.178573 0.178573 0.178573 0.178573 0.178573 0.178573 0.178573 0.178573 
0.178573 0.178573 0.178573 0.178573 0.178573 0.178573 0.178573 0.178573 0.178573 
0.178573 0.178573 0.178573 0.178573 0.178573 0.178573 0.178573 0.178573 0.178573 
0.178573 0.178573 0.178573 0.178573 0.178573 0.178573 0.178573 0.178573 0.178573 
0.178573 0.178573 0.178573 0.178573 0.178573 0.178573 0.178573 0.178573 0.178573 
0.178573 0.178573 0.178573 0.178573 0.178573 0.178573 0.178573 0.178573 0.178573 
0.178573 0.178573 0.178573 0.178573 0.178573 0.178573 0.178573 0.178573 0.178573 
0.178573 0.178573 0.178573 0.178573 0.178573 0.178573 0.178573 0.178573 0.178573 
0.178573 0.178573 0.178573 0.178573 0.178573 0.178573 0.178573 0.178573 0.178573 
0.178573 0.178573 0.178573 0.178573 0.178573 0.178573 0.178573 0.178573 0.178573 
0.178573 0.178573 0.178573 0.178573 0.178573 0.178573 0.178573 0.178573 0.178573 
0.178573 0.178573 0.178573 0.178573 0.178573 0.178573 0.178573 0.178573 0.178573 
0.178573 0.178573 0.178573 0.178573 0.178573 0.178573 0.178573 0.178573 0.178573 
0.178573 0.178573 0.178574 0.178573 0.178573 0.178573 0.178573 0.178573 0.178573 
0.178573 0.178573 0.178573 0.178573 0.178573 0.178574 0.178573 0.178573 0.178573 
0.178573 0.178573 0.178573 0.178573 0.178573 0.178573 0.178573 0.178574 0.178573 
0.178573 0.178573 0.178573 0.178573 0.178573 0.178573 0.178573 0.178573 0.178573 
0.178573 0.178574 0.17857 0.178573 0.178573 0.178573 0.178573 0.178573 0.178573 
0.178573 0.178573 0.178573 0.178573 0.178575 0.178566 0.178573 0.178573 0.178573 
0.178573 0.178573 0.178573 0.178573 0.178573 0.178573 0.178574 0.178574 0.178565 
0.178573 0.178573 0.178573 0.178573 0.178573 0.178573 0.178573 0.178573 0.178573 
0.178574 0.178571 0.178566 0.178573 0.178573 0.178573 0.178573 0.178573 0.178573 
0.178573 0.178573 0.178573 0.178575 0.178569 0.178571 0.178573 0.178573 0.178573 
0.178573 0.178573 0.178573 0.178573 0.178573 0.178573 0.178575 0.178567 0.178574 
0.178573 0.178573 0.178573 0.178573 0.178573 0.178573 0.178573 0.178573 0.178573 
0.178575 0.178566 0.178582 0.178573 0.178573 0.178573 0.178573 0.178573 0.178573 
0.178572 0.178573 0.178574 0.178575 0.178564 0.178586 0.178573 0.178573 0.178573 
0.178573 0.178573 0.178573 0.178573 0.178573 0.178573 0.178573 0.178573 0.178573 
0.178573 0.178573 0.178573 0.178573 0.178573 0.178573 0.178573 0.178573 0.178573 
0.178573 0.178573 0.178573 0.178573 0.178573 0.178573 0.178573 0.178573 0.178573 
0.178573 0.178573 0.178573 0.178573 0.178573 0.178573 0.178573 0.178573 0.178573 
0.178573 0.178573 0.178573 0.178573 0.178573 0.178573 0.178573 0.178573 0.178573 
0.178573 0.178573 0.178573 0.178573 0.178573 0.178573 0.178573 0.178573 0.178573 
0.178573 0.178573 0.178573 0.178573 0.178573 0.178573 0.178573 0.178573 0.178573 
0.178573 0.178573 0.178573 0.178573 0.178573 0.178573 0.178573 0.178573 0.178573 
0.178573 0.178573 0.178573 0.178573 0.178573 0.178573 0.178573 0.178573 0.178573 
0.178573 0.178573 0.178573 0.178573 0.178573 0.178573 0.178573 0.178573 0.178573 
0.178573 0.178573 0.178573 0.178573 0.178573 0.178573 0.178573 0.178573 0.178573 
0.178573 0.178573 0.178573 0.178573 0.178573 0.178573 0.178573 0.178573 0.178573 
0.178573 0.178573 0.178573 0.178573 0.178573 0.178573 0.178573 0.178573 0.178573 
0.178573 0.178573 0.178573 0.178573 0.178573 0.178573 0.178573 0.178573 0.178573 
0.178573 0.178573 0.178573 0.178573 0.178573 0.178573 0.178573 0.178573 0.178573 
0.178573 0.178573 0.178573 0.178573 0.178573 0.178573 0.178573 0.178573 0.178573 
0.178573 0.178573 0.178573 0.178573 0.178573 0.178573 0.178573 0.178573 0.178573 
0.178573 0.178573 0.178573 0.178573 0.178573 0.178573 0.178573 0.178573 0.178573 
0.178573 0.178573 0.178573 0.178573 0.178573 0.178573 0.178573 0.178573 0.178573 
0.178573 0.178573 0.178573 0.178573 0.178573 0.178574 0.178573 0.178573 0.178573 
0.178573 0.178573 0.178573 0.178573 0.178573 0.178573 0.178573 0.178573 0.178574 
0.178573 0.178573 0.178573 0.178573 0.178573 0.178573 0.178573 0.178573 0.178573 
0.178573 0.178574 0.178572 0.178573 0.178573 0.178573 0.178573 0.178573 0.178573 
0.178573 0.178573 0.178573 0.178573 0.178575 0.178569 0.178573 0.178573 0.178573 
0.178573 0.178573 0.178573 0.178573 0.178573 0.178573 0.178573 0.178575 0.178565 
0.178573 0.178573 0.178573 0.178573 0.178573 0.178573 0.178573 0.178573 0.178573 
0.178574 0.178573 0.178565 0.178573 0.178573 0.178573 0.178573 0.178573 0.178573 
0.178573 0.178573 0.178573 0.178574 0.178571 0.178566 0.178573 0.178573 0.178573 
0.178573 0.178573 0.178573 0.178573 0.178573 0.178573 0.178575 0.178569 0.178571 
0.178573 0.178573 0.178573 0.178573 0.178573 0.178573 0.178573 0.178573 0.178573 
0.178575 0.178567 0.178575 0.178573 0.178573 0.178573 0.178573 0.178573 0.178573 
0.178573 0.178573 0.178573 0.178575 0.178566 0.178584 0.178573 0.178573 0.178573 
0.178573 0.178573 0.178573 0.178572 0.178573 0.178574 0.178575 0.178564 0.178588 
0.178573 0.178573 0.178573 0.178573 0.178573 0.178573 0.178573 0.178573 0.178573 
0.178573 0.178573 0.178573 0.178573 0.178573 0.178573 0.178573 0.178573 0.178573 
0.178573 0.178573 0.178573 0.178573 0.178573 0.178573 0.178573 0.178573 0.178573 
0.178573 0.178573 0.178573 0.178573 0.178573 0.178573 0.178573 0.178573 0.178573 
0.178573 0.178573 0.178573 0.178573 0.178573 0.178573 0.178573 0.178573 0.178573 
0.178573 0.178573 0.178573 0.178573 0.178573 0.178573 0.178573 0.178573 0.178573 
0.178573 0.178573 0.178573 0.178573 0.178573 0.178573 0.178573 0.178573 0.178573 
0.178573 0.178573 0.178573 0.178573 0.178573 0.178573 0.178573 0.178573 0.178573 
0.178573 0.178573 0.178573 0.178573 0.178573 0.178573 0.178573 0.178573 0.178573 
0.178573 0.178573 0.178573 0.178573 0.178573 0.178573 0.178573 0.178573 0.178573 
0.178573 0.178573 0.178573 0.178573 0.178573 0.178573 0.178573 0.178573 0.178573 
0.178573 0.178573 0.178573 0.178573 0.178573 0.178573 0.178573 0.178573 0.178573 
0.178573 0.178573 0.178573 0.178573 0.178573 0.178573 0.178573 0.178573 0.178573 
0.178573 0.178573 0.178573 0.178573 0.178573 0.178573 0.178573 0.178573 0.178573 
0.178573 0.178573 0.178573 0.178573 0.178573 0.178573 0.178573 0.178573 0.178573 
0.178573 0.178573 0.178573 0.178573 0.178573 0.178573 0.178573 0.178573 0.178573 
0.178573 0.178573 0.178573 0.178573 0.178573 0.178573 0.178573 0.178573 0.178573 
0.178573 0.178573 0.178573 0.178573 0.178573 0.178573 0.178573 0.178573 0.178573 
0.178573 0.178573 0.178573 0.178573 0.178573 0.178573 0.178573 0.178573 0.178573 
0.178573 0.178573 0.178573 0.178573 0.178573 0.178573 0.178573 0.178573 0.178574 
0.178573 0.178573 0.178573 0.178573 0.178573 0.178573 0.178573 0.178573 0.178573 
0.178573 0.178573 0.178574 0.178573 0.178573 0.178573 0.178573 0.178573 0.178573 
0.178573 0.178573 0.178573 0.178573 0.178574 0.178572 0.178573 0.178573 0.178573 
0.178573 0.178573 0.178573 0.178573 0.178573 0.178573 0.178573 0.178575 0.178569 
0.178573 0.178573 0.178573 0.178573 0.178573 0.178573 0.178573 0.178573 0.178573 
0.178573 0.178574 0.178565 0.178573 0.178573 0.178573 0.178573 0.178573 0.178573 
0.178573 0.178573 0.178573 0.178574 0.178573 0.178565 0.178573 0.178573 0.178573 
0.178573 0.178573 0.178573 0.178573 0.178573 0.178573 0.178574 0.178571 0.178567 
0.178573 0.178573 0.178573 0.178573 0.178573 0.178573 0.178573 0.178573 0.178573 
0.178575 0.178569 0.178573 0.178573 0.178573 0.178573 0.178573 0.178573 0.178573 
0.178573 0.178573 0.178573 0.178575 0.178567 0.178577 0.178573 0.178573 0.178573 
0.178573 0.178573 0.178573 0.178573 0.178573 0.178573 0.178575 0.178565 0.178587 
0.178573 0.178573 0.178573 0.178573 0.178573 0.178573 0.178572 0.178573 0.178574 
0.178575 0.178564 0.17859 0.178573 0.178573 0.178573 0.178573 0.178573 0.178573 
0.178573 0.178573 0.178573 0.178573 0.178573 0.178573 0.178573 0.178573 0.178573 
0.178573 0.178573 0.178573 0.178573 0.178573 0.178573 0.178573 0.178573 0.178573 
0.178573 0.178573 0.178573 0.178573 0.178573 0.178573 0.178573 0.178573 0.178573 
0.178573 0.178573 0.178573 0.178573 0.178573 0.178573 0.178573 0.178573 0.178573 
0.178573 0.178573 0.178573 0.178573 0.178573 0.178573 0.178573 0.178573 0.178573 
0.178573 0.178573 0.178573 0.178573 0.178573 0.178573 0.178573 0.178573 0.178573 
0.178573 0.178573 0.178573 0.178573 0.178573 0.178573 0.178573 0.178573 0.178573 
0.178573 0.178573 0.178573 0.178573 0.178573 0.178573 0.178573 0.178573 0.178573 
0.178573 0.178573 0.178573 0.178573 0.178573 0.178573 0.178573 0.178573 0.178573 