# vtk DataFile Version 5.1
vtk output
ASCII
DATASET STRUCTURED_GRID
DIMENSIONS 25 20 55
POINTS 27500 float
1.85283 1.082 -0.5 1.83321 1.0781 -0.5 1.81315 1.07411 -0.5 
1.79273 1.07004 -0.5 1.77206 1.06593 -0.5 1.75123 1.06179 -0.5 
1.73036 1.05764 -0.5 1.70956 1.0535 -0.5 1.68893 1.0494 -0.5 
1.66857 1.04535 -0.5 1.64859 1.04137 -0.5 1.62908 1.03749 -0.5 
1.61011 1.03372 -0.5 1.59176 1.03007 -0.5 1.5741 1.02656 -0.5 
1.55716 1.02319 -0.5 1.54099 1.01997 -0.5 1.52561 1.01691 -0.5 
1.51105 1.01402 -0.5 1.49731 1.01128 -0.5 1.48439 1.00871 -0.5 
1.47227 1.0063 -0.5 1.46095 1.00405 -0.5 1.4504 1.00195 -0.5 
1.44059 1 -0.5 1.85305 1.07901 -0.5 1.83344 1.07511 -0.5 
1.81334 1.07112 -0.5 1.79285 1.06705 -0.5 1.77207 1.06293 -0.5 
1.75111 1.05878 -0.5 1.73008 1.05462 -0.5 1.70911 1.05047 -0.5 
1.6883 1.04636 -0.5 1.66779 1.0423 -0.5 1.64767 1.03831 -0.5 
1.62805 1.03443 -0.5 1.60902 1.03065 -0.5 1.59065 1.027 -0.5 
1.573 1.02349 -0.5 1.55613 1.02013 -0.5 1.54006 1.01692 -0.5 
1.52483 1.01387 -0.5 1.51043 1.01099 -0.5 1.49689 1.00827 -0.5 
1.48417 1.00572 -0.5 1.47228 1.00333 -0.5 1.46119 1.0011 -0.5 
1.45088 0.999018 -0.5 1.4413 0.997086 -0.5 1.85329 1.07569 -0.5 
1.83369 1.0718 -0.5 1.81355 1.06781 -0.5 1.79299 1.06375 -0.5 
1.77209 1.05963 -0.5 1.75097 1.05548 -0.5 1.72977 1.05131 -0.5 
1.70861 1.04716 -0.5 1.68762 1.04304 -0.5 1.66693 1.03898 -0.5 
1.64667 1.03499 -0.5 1.62694 1.0311 -0.5 1.60784 1.02733 -0.5 
1.58945 1.02368 -0.5 1.57183 1.02018 -0.5 1.55502 1.01683 -0.5 
1.53907 1.01364 -0.5 1.52398 1.01062 -0.5 1.50977 1.00776 -0.5 
1.49643 1.00506 -0.5 1.48394 1.00254 -0.5 1.47229 1.00017 -0.5 
1.46145 0.997966 -0.5 1.45138 0.995913 -0.5 1.44206 0.994007 -0.5 
1.85356 1.07201 -0.5 1.83396 1.06814 -0.5 1.81378 1.06417 -0.5 
1.79313 1.06012 -0.5 1.7721 1.05601 -0.5 1.75082 1.05186 -0.5 
1.72943 1.0477 -0.5 1.70807 1.04355 -0.5 1.68688 1.03942 -0.5 
1.666 1.03536 -0.5 1.64559 1.03138 -0.5 1.62574 1.0275 -0.5 
1.60657 1.02374 -0.5 1.58815 1.02011 -0.5 1.57056 1.01662 -0.5 
1.55384 1.0133 -0.5 1.53801 1.01013 -0.5 1.52309 1.00714 -0.5 
1.50907 1.00431 -0.5 1.49595 1.00165 -0.5 1.4837 0.999153 -0.5 
1.4723 0.996822 -0.5 1.46172 0.99465 -0.5 1.45191 0.992631 -0.5 
1.44285 0.990759 -0.5 1.85386 1.06795 -0.5 1.83426 1.06411 -0.5 
1.81404 1.06016 -0.5 1.79328 1.05613 -0.5 1.77211 1.05204 -0.5 
1.75065 1.0479 -0.5 1.72906 1.04375 -0.5 1.70747 1.03961 -0.5 
1.68607 1.03549 -0.5 1.665 1.03144 -0.5 1.64441 1.02747 -0.5 
1.62444 1.0236 -0.5 1.60519 1.01986 -0.5 1.58676 1.01626 -0.5 
1.56921 1.0128 -0.5 1.55257 1.00951 -0.5 1.53687 1.00638 -0.5 
1.52213 1.00342 -0.5 1.50832 1.00063 -0.5 1.49543 0.998011 -0.5 
1.48344 0.99556 -0.5 1.47231 0.993273 -0.5 1.462 0.991144 -0.5 
1.45248 0.989167 -0.5 1.44369 0.987337 -0.5 1.85419 1.06347 -0.5 
1.83459 1.05967 -0.5 1.81431 1.05576 -0.5 1.79345 1.05176 -0.5 
1.77212 1.04769 -0.5 1.75047 1.04358 -0.5 1.72864 1.03945 -0.5 
1.70683 1.03532 -0.5 1.68519 1.03123 -0.5 1.66391 1.02719 -0.5 
1.64315 1.02324 -0.5 1.62305 1.0194 -0.5 1.60372 1.01569 -0.5 
1.58527 1.01212 -0.5 1.56775 1.0087 -0.5 1.55121 1.00545 -0.5 
1.53566 1.00236 -0.5 1.5211 0.999453 -0.5 1.50752 0.996716 -0.5 
1.49488 0.994151 -0.5 1.48316 0.991754 -0.5 1.47232 0.98952 -0.5 
1.4623 0.987444 -0.5 1.45307 0.985519 -0.5 1.44457 0.983738 -0.5 
1.85456 1.05855 -0.5 1.83495 1.0548 -0.5 1.8146 1.05093 -0.5 
1.79362 1.04698 -0.5 1.77213 1.04295 -0.5 1.75026 1.03887 -0.5 
1.7282 1.03476 -0.5 1.70612 1.03067 -0.5 1.68424 1.0266 -0.5 
1.66273 1.0226 -0.5 1.64178 1.01868 -0.5 1.62154 1.01488 -0.5 
1.60214 1.0112 -0.5 1.58368 1.00768 -0.5 1.56621 1.00431 -0.5 
1.54977 1.00111 -0.5 1.53437 0.998086 -0.5 1.52002 0.995237 -0.5 
1.50667 0.992563 -0.5 1.4943 0.990062 -0.5 1.48287 0.987729 -0.5 
1.47232 0.985559 -0.5 1.46261 0.983546 -0.5 1.45369 0.981682 -0.5 
1.4455 0.979961 -0.5 1.85495 1.05314 -0.5 1.83534 1.04946 -0.5 
1.81493 1.04565 -0.5 1.79381 1.04175 -0.5 1.77213 1.03777 -0.5 
1.75003 1.03374 -0.5 1.72771 1.02968 -0.5 1.70536 1.02563 -0.5 
1.68321 1.0216 -0.5 1.66147 1.01764 -0.5 1.64032 1.01377 -0.5 
1.61994 1.01001 -0.5 1.60045 1.00639 -0.5 1.58197 1.00292 -0.5 
1.56456 0.999621 -0.5 1.54823 0.99649 -0.5 1.53301 0.993537 -0.5 
1.51887 0.990762 -0.5 1.50577 0.988164 -0.5 1.49369 0.985739 -0.5 
1.48255 0.983482 -0.5 1.47232 0.981388 -0.5 1.46294 0.979448 -0.5 
1.45434 0.977655 -0.5 1.44647 0.976002 -0.5 1.85539 1.04723 -0.5 
1.83577 1.04363 -0.5 1.81527 1.0399 -0.5 1.79402 1.03607 -0.5 
1.77213 1.03215 -0.5 1.74978 1.02818 -0.5 1.72717 1.02418 -0.5 
1.70454 1.02018 -0.5 1.6821 1.01621 -0.5 1.6601 1.01231 -0.5 
1.63875 1.00849 -0.5 1.61821 1.0048 -0.5 1.59865 1.00125 -0.5 
1.58016 0.997854 -0.5 1.5628 0.994629 -0.5 1.5466 0.99158 -0.5 
1.53156 0.988712 -0.5 1.51765 0.986025 -0.5 1.50482 0.983515 -0.5 
1.49304 0.98118 -0.5 1.48223 0.979012 -0.5 1.47233 0.977004 -0.5 
1.46328 0.975148 -0.5 1.45502 0.973437 -0.5 1.44748 0.971862 -0.5 
1.85586 1.04079 -0.5 1.83623 1.03728 -0.5 1.81565 1.03364 -0.5 
1.79424 1.0299 -0.5 1.77213 1.02607 -0.5 1.74951 1.02217 -0.5 
1.7266 1.01824 -0.5 1.70365 1.01431 -0.5 1.68091 1.01042 -0.5 
1.65864 1.00658 -0.5 1.63707 1.00285 -0.5 1.61638 0.999233 -0.5 
1.59674 0.995765 -0.5 1.57824 0.992459 -0.5 1.56094 0.989327 -0.5 
1.54488 0.986376 -0.5 1.53003 0.983609 -0.5 1.51636 0.981024 -0.5 
1.50382 0.978617 -0.5 1.49235 0.976384 -0.5 1.48188 0.974317 -0.5 
1.47233 0.972408 -0.5 1.46363 0.970648 -0.5 1.45573 0.969029 -0.5 
1.44854 0.967541 -0.5 1.85638 1.03379 -0.5 1.83673 1.03039 -0.5 
1.81606 1.02687 -0.5 1.79447 1.02323 -0.5 1.77212 1.01949 -0.5 
1.74921 1.01569 -0.5 1.72597 1.01186 -0.5 1.70269 1.00801 -0.5 
1.67963 1.0042 -0.5 1.65708 1.00046 -0.5 1.63527 0.996819 -0.5 
1.61443 0.993302 -0.5 1.5947 0.989936 -0.5 1.5762 0.986736 -0.5 
1.55898 0.983715 -0.5 1.54306 0.980878 -0.5 1.52841 0.978227 -0.5 
1.51501 0.975759 -0.5 1.50277 0.97347 -0.5 1.49163 0.971353 -0.5 
1.48151 0.9694 -0.5 1.47233 0.967601 -0.5 1.46401 0.965948 -0.5 
1.45647 0.964431 -0.5 1.44964 0.96304 -0.5 1.85694 1.02621 -0.5 
1.83727 1.02295 -0.5 1.81649 1.01955 -0.5 1.79471 1.01603 -0.5 
1.7721 1.01242 -0.5 1.74888 1.00873 -0.5 1.7253 1.00501 -0.5 
1.70166 1.00127 -0.5 1.67827 0.997571 -0.5 1.65542 0.993938 -0.5 
1.63337 0.990407 -0.5 1.61236 0.987007 -0.5 1.59255 0.983761 -0.5 
1.57405 0.980686 -0.5 1.55691 0.977794 -0.5 1.54114 0.975088 -0.5 
1.52672 0.97257 -0.5 1.51359 0.970235 -0.5 1.50167 0.968078 -0.5 
1.49088 0.966091 -0.5 1.48113 0.964264 -0.5 1.47233 0.962588 -0.5 
1.46439 0.961052 -0.5 1.45724 0.959647 -0.5 1.45078 0.958363 -0.5 
1.85754 1.01804 -0.5 1.83785 1.01493 -0.5 1.81696 1.01169 -0.5 
1.79497 1.00831 -0.5 1.77209 1.00484 -0.5 1.74853 1.00128 -0.5 
1.72458 0.997687 -0.5 1.70057 0.994084 -0.5 1.67682 0.990512 -0.5 
1.65365 0.987011 -0.5 1.63136 0.983613 -0.5 1.61018 0.98035 -0.5 
1.59028 0.977246 -0.5 1.57179 0.974316 -0.5 1.55473 0.97157 -0.5 
1.53914 0.969013 -0.5 1.52495 0.966645 -0.5 1.51211 0.964459 -0.5 
1.50052 0.962448 -0.5 1.4901 0.960604 -0.5 1.48073 0.958916 -0.5 
1.47233 0.957374 -0.5 1.46479 0.955966 -0.5 1.45803 0.954682 -0.5 
1.45197 0.953512 -0.5 1.85818 1.00928 -0.5 1.83847 1.00634 -0.5 
1.81745 1.00327 -0.5 1.79525 1.00006 -0.5 1.77207 0.996741 -0.5 
1.74815 0.993344 -0.5 1.72381 0.989901 -0.5 1.6994 0.986451 -0.5 
1.67528 0.983032 -0.5 1.65179 0.979684 -0.5 1.62924 0.976444 -0.5 
1.60789 0.973341 -0.5 1.58791 0.970398 -0.5 1.56942 0.967633 -0.5 
1.55246 0.965054 -0.5 1.53704 0.962664 -0.5 1.5231 0.960462 -0.5 
1.51056 0.95844 -0.5 1.49932 0.95659 -0.5 1.48928 0.954902 -0.5 
1.48031 0.953365 -0.5 1.47232 0.951966 -0.5 1.4652 0.950696 -0.5 
1.45886 0.949542 -0.5 1.4532 0.948495 -0.5 1.85887 0.999917 -0.5 
1.83913 0.997179 -0.5 1.81797 0.994292 -0.5 1.79554 0.99127 -0.5 
1.77204 0.988137 -0.5 1.74774 0.98492 -0.5 1.723 0.981655 -0.5 
1.69817 0.978382 -0.5 1.67366 0.97514 -0.5 1.64983 0.971971 -0.5 
1.62702 0.968911 -0.5 1.60548 0.96599 -0.5 1.58542 0.963232 -0.5 
1.56695 0.960653 -0.5 1.5501 0.95826 -0.5 1.53487 0.956055 -0.5 
1.52118 0.954035 -0.5 1.50896 0.952192 -0.5 1.49809 0.950517 -0.5 
1.48843 0.948997 -0.5 1.47988 0.94762 -0.5 1.47232 0.946376 -0.5 
1.46563 0.945251 -0.5 1.45971 0.944234 -0.5 1.45447 0.943317 -0.5 
1.8596 0.989973 -0.5 1.83983 0.98745 -0.5 1.81852 0.984776 -0.5 
1.79584 0.981964 -0.5 1.772 0.979037 -0.5 1.74731 0.976024 -0.5 
1.72213 0.972962 -0.5 1.69687 0.969891 -0.5 1.67195 0.966852 -0.5 
1.64778 0.963887 -0.5 1.62469 0.961033 -0.5 1.60298 0.958318 -0.5 
1.58284 0.955768 -0.5 1.56438 0.953395 -0.5 1.54765 0.951208 -0.5 
1.53261 0.949205 -0.5 1.5192 0.947383 -0.5 1.50731 0.945733 -0.5 
1.4968 0.944244 -0.5 1.48756 0.942903 -0.5 1.47944 0.941697 -0.5 
1.47232 0.940614 -0.5 1.46607 0.939642 -0.5 1.46058 0.93877 -0.5 
1.45577 0.937986 -0.5 1.86038 0.979465 -0.5 1.84056 0.977178 -0.5 
1.81911 0.974737 -0.5 1.79616 0.972157 -0.5 1.77197 0.969461 -0.5 
1.74685 0.966678 -0.5 1.72122 0.963844 -0.5 1.69551 0.961002 -0.5 
1.67017 0.958192 -0.5 1.64564 0.955458 -0.5 1.62227 0.952833 -0.5 
1.60038 0.95035 -0.5 1.58016 0.948029 -0.5 1.56173 0.945884 -0.5 
1.54511 0.94392 -0.5 1.53029 0.942137 -0.5 1.51716 0.940528 -0.5 
1.5056 0.939083 -0.5 1.49549 0.93779 -0.5 1.48666 0.936637 -0.5 
1.47898 0.93561 -0.5 1.47231 0.934695 -0.5 1.46652 0.933882 -0.5 
1.46148 0.933158 -0.5 1.45711 0.932514 -0.5 1.86119 0.968424 -0.5 
1.84134 0.966392 -0.5 1.81971 0.964206 -0.5 1.79649 0.961881 -0.5 
1.77192 0.959439 -0.5 1.74637 0.956909 -0.5 1.72027 0.954331 -0.5 
1.69409 0.951743 -0.5 1.66832 0.94919 -0.5 1.64342 0.946712 -0.5 
1.61977 0.944344 -0.5 1.5977 0.942115 -0.5 1.5774 0.940046 -0.5 
1.559 0.938148 -0.5 1.54251 0.936425 -0.5 1.5279 0.934876 -0.5 
1.51506 0.933493 -0.5 1.50385 0.932264 -0.5 1.49414 0.931177 -0.5 
1.48574 0.93022 -0.5 1.47851 0.929377 -0.5 1.4723 0.928636 -0.5 
1.46698 0.927985 -0.5 1.46241 0.927413 -0.5 1.45849 0.92691 -0.5 
1.86204 0.956893 -0.5 1.84214 0.955135 -0.5 1.82034 0.953223 -0.5 
1.79682 0.951174 -0.5 1.77187 0.949009 -0.5 1.74587 0.946758 -0.5 
[...]
POINT_DATA 27500
FIELD FieldData 5
pressure 1 27500 float
0.178573 0.178573 0.178573 0.178573 0.178573 0.178573 0.178573 0.178573 0.178573 
0.178573 0.178573 0.178573 0.178573 0.178573 0.178573 0.178573 0.178573 0.178573 
0.178573 0.178573 0.178573 0.178573 0.178573 0.178573 0.178573 0.990996 0.908696 
0.931763 0.71456 0.594571 0.582362 0.58283 0.584443 0.586546 0.587232 0.585231 
0.581354 0.582704 0.591858 0.601414 0.609121 0.616037 0.62573 0.641642 0.672533 
0.678633 0.5774 0.517313 0.429541 0.33837 0.989045 0.908222 0.913742 0.691667 
0.588635 0.581309 0.582202 0.583826 0.585628 0.585948 0.584057 0.580664 0.582855 
0.592116 0.601448 0.60904 0.616128 0.627245 0.64536 0.673577 0.672673 0.574673 
0.5083 0.426763 0.352951 0.987649 0.907126 0.917169 0.684402 0.587159 0.581279 
0.58227 0.583856 0.585501 0.585579 0.583876 0.580989 0.583735 0.593018 0.602203 
0.609655 0.61725 0.628897 0.647651 0.673637 0.666623 0.570906 0.492516 0.421393 
0.373632 0.982857 0.908138 0.913336 0.670215 0.585651 0.581418 0.582562 0.584036 
0.58534 0.585287 0.583963 0.581845 0.584995 0.593991 0.602915 0.610389 0.618377 
0.63046 0.649648 0.672033 0.659342 0.564386 0.475227 0.418992 0.396021 0.975973 
0.911552 0.906722 0.657023 0.584377 0.581382 0.582516 0.58381 0.584761 0.584661 
0.583915 0.582787 0.586022 0.594833 0.603643 0.611361 0.619744 0.632375 0.65145 
0.668986 0.649989 0.553026 0.458435 0.419928 0.409286 0.968063 0.912763 0.898652 
0.643878 0.583607 0.581547 0.582846 0.583772 0.58439 0.584226 0.584456 0.583924 
0.587321 0.595769 0.604532 0.612411 0.621354 0.634429 0.652636 0.664175 0.636991 
0.536226 0.450754 0.423935 0.415888 0.959635 0.910803 0.887269 0.632694 0.582869 
0.581797 0.582927 0.583609 0.583694 0.583999 0.584837 0.585551 0.588411 0.596749 
0.605238 0.613688 0.622988 0.636643 0.652878 0.655477 0.614101 0.517216 0.45167 
0.429483 0.416628 0.951462 0.907699 0.873266 0.622281 0.582673 0.581901 0.583214 
0.583192 0.583329 0.58356 0.585943 0.586796 0.589675 0.597399 0.606198 0.614923 
0.625035 0.638456 0.651465 0.641241 0.581626 0.507227 0.457441 0.436307 0.417774 
0.944391 0.902775 0.853475 0.613835 0.582167 0.582295 0.583081 0.582958 0.582439 
0.583685 0.58675 0.588643 0.590474 0.598307 0.607051 0.616858 0.62701 0.639951 
0.644419 0.611774 0.545806 0.504808 0.466245 0.444597 0.421837 0.938109 0.898098 
0.82948 0.605569 0.58223 0.582151 0.583187 0.58214 0.582065 0.583547 0.588063 
0.589888 0.591405 0.598852 0.608566 0.618472 0.628732 0.639019 0.634188 0.572783 
0.523451 0.50821 0.47915 0.452841 0.429127 0.932797 0.893739 0.798085 0.599321 
0.581686 0.582388 0.582592 0.581697 0.581276 0.584134 0.589196 0.59146 0.592122 
0.600129 0.610049 0.620513 0.63102 0.633008 0.599004 0.530338 0.507771 0.513424 
0.494168 0.463052 0.437305 0.927054 0.887081 0.763897 0.593194 0.581564 0.582046 
0.582195 0.580672 0.58108 0.58444 0.590368 0.592578 0.593116 0.601194 0.611568 
0.621751 0.631468 0.621868 0.554202 0.501762 0.502301 0.521084 0.510995 0.475608 
0.443899 0.921585 0.880188 0.723749 0.588782 0.581165 0.58188 0.581593 0.58011 
0.580806 0.585141 0.591345 0.594047 0.593925 0.601949 0.612716 0.625621 0.621247 
0.57722 0.508298 0.490182 0.50297 0.526493 0.528209 0.492769 0.448752 0.915264 
0.867424 0.684805 0.585049 0.580712 0.581113 0.580959 0.579597 0.580933 0.585809 
0.592534 0.595349 0.594686 0.602498 0.613506 0.626397 0.603283 0.525725 0.486189 
0.487718 0.504415 0.529005 0.545597 0.514601 0.455517 0.906927 0.845435 0.649689 
0.582612 0.580099 0.580765 0.580417 0.579507 0.581212 0.586577 0.593743 0.596592 
0.59517 0.603733 0.617125 0.607355 0.547249 0.488334 0.478083 0.488132 0.504527 
0.528481 0.558973 0.540812 0.470251 0.897568 0.809749 0.6244 0.580724 0.579446 
0.580047 0.579925 0.579423 0.581966 0.587663 0.59478 0.597374 0.595414 0.605299 
0.616727 0.573023 0.498868 0.473623 0.47617 0.489079 0.50272 0.526734 0.566668 
0.57347 0.493069 0.887795 0.760638 0.605878 0.579596 0.578757 0.579201 0.579518 
0.580141 0.583166 0.58873 0.594736 0.597365 0.598353 0.605098 0.585616 0.516058 
0.474748 0.469505 0.476487 0.488788 0.499916 0.525704 0.565544 0.601189 0.52771 
0.868928 0.69949 0.593222 0.577992 0.57787 0.578559 0.579527 0.580975 0.584225 
0.588549 0.593959 0.598214 0.602158 0.598318 0.536674 0.47982 0.467098 0.468902 
0.477629 0.488399 0.499283 0.521966 0.553934 0.612383 0.577993 0.840585 0.654186 
0.586231 0.578045 0.57798 0.578794 0.580403 0.582769 0.585039 0.587603 0.593556 
0.603194 0.598121 0.555494 0.4915 0.467743 0.465114 0.469334 0.477234 0.486323 
0.497783 0.511124 0.529711 0.581654 0.582179 0.990996 0.908696 0.931763 0.71456 
0.594571 0.582362 0.58283 0.584443 0.586546 0.587232 0.585231 0.581354 0.582704 
0.591858 0.601414 0.609121 0.616037 0.62573 0.641642 0.672533 0.678633 0.5774 
0.517313 0.429541 0.33837 0.990996 0.908696 0.931763 0.71456 0.594571 0.582362 
0.58283 0.584443 0.586546 0.587232 0.585231 0.581354 0.582704 0.591858 0.601414 
0.609121 0.616037 0.62573 0.641642 0.672533 0.678633 0.5774 0.517313 0.429541 
0.33837 0.989045 0.908222 0.913742 0.691667 0.588635 0.581309 0.582202 0.583826 
0.585628 0.585948 0.584057 0.580664 0.582855 0.592116 0.601448 0.60904 0.616128 
0.627245 0.64536 0.673577 0.672673 0.574673 0.5083 0.426763 0.352951 0.987649 
0.907126 0.917169 0.684402 0.587159 0.581279 0.58227 0.583856 0.585501 0.585579 
0.583876 0.580989 0.583735 0.593018 0.602203 0.609655 0.61725 0.628897 0.647651 
0.673637 0.666623 0.570906 0.492516 0.421393 0.373632 0.982857 0.908138 0.913336 
0.670215 0.585651 0.581418 0.582562 0.584036 0.58534 0.585287 0.583963 0.581845 
0.584995 0.593991 0.602915 0.610389 0.618377 0.63046 0.649648 0.672033 0.659342 
0.564386 0.475227 0.418992 0.396021 0.975973 0.911552 0.906722 0.657023 0.584377 
0.581382 0.582516 0.58381 0.584761 0.584661 0.583915 0.582787 0.586022 0.594833 
0.603643 0.611361 0.619744 0.632375 0.65145 0.668986 0.649989 0.553026 0.458435 
0.419928 0.409286 0.968063 0.912763 0.898652 0.643878 0.583607 0.581547 0.582846 
0.583772 0.58439 0.584226 0.584456 0.583924 0.587321 0.595769 0.604532 0.612411 
0.621354 0.634429 0.652636 0.664175 0.636991 0.536226 0.450754 0.423935 0.415888 
0.959635 0.910803 0.887269 0.632694 0.582869 0.581797 0.582927 0.583609 0.583694 
0.583999 0.584837 0.585551 0.588411 0.596749 0.605238 0.613688 0.622988 0.636643 
0.652878 0.655477 0.614101 0.517216 0.45167 0.429483 0.416628 0.951462 0.907699 
0.873266 0.622281 0.582673 0.581901 0.583214 0.583192 0.583329 0.58356 0.585943 
0.586796 0.589675 0.597399 0.606198 0.614923 0.625035 0.638456 0.651465 0.641241 
0.581626 0.507227 0.457441 0.436307 0.417774 0.944391 0.902775 0.853475 0.613835 
0.582167 0.582295 0.583081 0.582958 0.582439 0.583685 0.58675 0.588643 0.590474 
0.598307 0.607051 0.616858 0.62701 0.639951 0.644419 0.611774 0.545806 0.504808 
0.466245 0.444597 0.421837 0.938109 0.898098 0.82948 0.605569 0.58223 0.582151 
0.583187 0.58214 0.582065 0.583547 0.588063 0.589888 0.591405 0.598852 0.608566 
0.618472 0.628732 0.639019 0.634188 0.572783 0.523451 0.50821 0.47915 0.452841 
0.429127 0.932797 0.893739 0.798085 0.599321 0.581686 0.582388 0.582592 0.581697 
0.581276 0.584134 0.589196 0.59146 0.592122 0.600129 0.610049 0.620513 0.63102 
0.633008 0.599004 0.530338 0.507771 0.513424 0.494168 0.463052 0.437305 0.927054 
0.887081 0.763897 0.593194 0.581564 0.582046 0.582195 0.580672 0.58108 0.58444 
0.590368 0.592578 0.593116 0.601194 0.611568 0.621751 0.631468 0.621868 0.554202 
0.501762 0.502301 0.521084 0.510995 0.475608 0.443899 0.921585 0.880188 0.723749 
0.588782 0.581165 0.58188 0.581593 0.58011 0.580806 0.585141 0.591345 0.594047 
0.593925 0.601949 0.612716 0.625621 0.621247 0.57722 0.508298 0.490182 0.50297 
0.526493 0.528209 0.492769 0.448752 0.915264 0.867424 0.684805 0.585049 0.580712 
0.581113 0.580959 0.579597 0.580933 0.585809 0.592534 0.595349 0.594686 0.602498 
0.613506 0.626397 0.603283 0.525725 0.486189 0.487718 0.504415 0.529005 0.545597 
0.514601 0.455517 0.906927 0.845435 0.649689 0.582612 0.580099 0.580765 0.580417 
0.579507 0.581212 0.586577 0.593743 0.596592 0.59517 0.603733 0.617125 0.607355 
0.547249 0.488334 0.478083 0.488132 0.504527 0.528481 0.558973 0.540812 0.470251 
0.897568 0.809749 0.6244 0.580724 0.579446 0.580047 0.579925 0.579423 0.581966 
0.587663 0.59478 0.597374 0.595414 0.605299 0.616727 0.573023 0.498868 0.473623 
0.47617 0.489079 0.50272 0.526734 0.566668 0.57347 0.493069 0.887795 0.760638 
0.605878 0.579596 0.578757 0.579201 0.579518 0.580141 0.583166 0.58873 0.594736 
0.597365 0.598353 0.605098 0.585616 0.516058 0.474748 0.469505 0.476487 0.488788 
0.499916 0.525704 0.565544 0.601189 0.52771 0.868928 0.69949 0.593222 0.577992 
0.57787 0.578559 0.579527 0.580975 0.584225 0.588549 0.593959 0.598214 0.602158 
0.598318 0.536674 0.47982 0.467098 0.468902 0.477629 0.488399 0.499283 0.521966 
0.553934 0.612383 0.577993 0.840585 0.654186 0.586231 0.578045 0.57798 0.578794 
0.580403 0.582769 0.585039 0.587603 0.593556 0.603194 0.598121 0.555494 0.4915 
0.467743 0.465114 0.469334 0.477234 0.486323 0.497783 0.511124 0.529711 0.581654 
0.582179 1.00155 0.916028 0.923617 0.697019 0.590169 0.581795 0.582676 0.584261 
0.586267 0.586838 0.58503 0.581079 0.582566 0.591592 0.601083 0.608731 0.615798 
0.626162 0.64269 0.671409 0.675998 0.575703 0.514929 0.425264 0.333948 1.00155 
0.916028 0.923617 0.697019 0.590169 0.581795 0.582676 0.584261 0.586267 0.586838 
0.58503 0.581079 0.582566 0.591592 0.601083 0.608731 0.615798 0.626162 0.64269 
0.671409 0.675998 0.575703 0.514929 0.425264 0.333948 1.00067 0.910334 0.908655 
0.678197 0.585978 0.581006 0.582102 0.583627 0.585418 0.585567 0.58386 0.580477 
0.582664 0.591861 0.601215 0.608667 0.615968 0.626721 0.644689 0.672503 0.670015 
0.572761 0.506127 0.422691 0.346252 0.996241 0.909175 0.910188 0.67088 0.58511 
0.581076 0.582147 0.583719 0.585174 0.585351 0.583484 0.580894 0.583519 0.592714 
0.60173 0.60931 0.616648 0.628174 0.646876 0.6725 0.66366 0.568809 0.491302 
0.416939 0.363075 0.98883 0.910318 0.905509 0.658545 0.58411 0.581234 0.582427 
0.583817 0.585112 0.584922 0.583796 0.581727 0.584706 0.593583 0.60254 0.60995 
0.617791 0.629783 0.648862 0.67082 0.656939 0.562272 0.474602 0.414347 0.3803 
0.979587 0.913838 0.89941 0.646264 0.583272 0.581189 0.582416 0.583642 0.584512 
0.584453 0.583788 0.582629 0.585851 0.594555 0.603306 0.610974 0.6192 0.631732 
0.650649 0.667662 0.647712 0.550768 0.457784 0.414935 0.388851 0.96984 0.913944 
0.890992 0.63516 0.582668 0.581434 0.58269 0.583614 0.584154 0.584068 0.58418 
0.583959 0.58706 0.595467 0.604185 0.612032 0.620861 0.633691 0.651954 0.66293 
0.634607 0.533928 0.449716 0.418563 0.393848 0.960947 0.911906 0.881068 0.624471 
0.582278 0.58157 0.582866 0.583396 0.583621 0.583731 0.584824 0.585306 0.5883 
0.596398 0.605017 0.613251 0.622601 0.635847 0.652282 0.6543 0.611363 0.515025 
0.450017 0.423201 0.394701 0.952247 0.908152 0.866036 0.615789 0.581985 0.581869 
0.583007 0.583197 0.583123 0.583563 0.585624 0.586901 0.589416 0.597251 0.605904 
0.614663 0.624681 0.637587 0.650721 0.640176 0.579075 0.504737 0.45521 0.428564 
0.394508 0.945121 0.903612 0.847256 0.607656 0.581871 0.582049 0.583111 0.582795 
0.58253 0.583448 0.586679 0.588466 0.590416 0.598015 0.606903 0.616442 0.626784 
0.638942 0.643514 0.610409 0.543723 0.502444 0.463847 0.435471 0.39608 0.939224 
0.898835 0.821553 0.601065 0.581759 0.582204 0.583002 0.582253 0.581914 0.583583 
0.587804 0.589955 0.591215 0.598794 0.608149 0.618251 0.628271 0.638222 0.631961 
0.570978 0.521062 0.506314 0.47707 0.442641 0.399333 0.933531 0.894663 0.791215 
0.595327 0.58167 0.582219 0.582727 0.581545 0.581402 0.584 0.58907 0.591312 
0.592 0.599857 0.609924 0.62005 0.63055 0.632616 0.595845 0.528814 0.505952 
0.511997 0.491913 0.451244 0.403357 0.927911 0.888998 0.755498 0.590766 0.581455 
0.582016 0.582115 0.58088 0.580988 0.584535 0.590166 0.592697 0.592964 0.601153 
0.61139 0.621576 0.631052 0.620424 0.551911 0.501032 0.500748 0.519517 0.508772 
0.461017 0.405917 0.92224 0.881727 0.71695 0.586934 0.580956 0.581666 0.581455 
0.580195 0.580915 0.585095 0.5913 0.594025 0.593932 0.601928 0.612801 0.624689 
0.619819 0.575541 0.506866 0.488977 0.501652 0.525066 0.525752 0.472261 0.407021 
0.915605 0.868092 0.677329 0.584025 0.580506 0.580952 0.580808 0.579581 0.581018 
0.585784 0.592434 0.595441 0.594865 0.602659 0.614449 0.626189 0.601119 0.523703 
0.485032 0.486658 0.503293 0.527898 0.542881 0.486577 0.407704 0.907459 0.843412 
0.644361 0.581874 0.579945 0.580545 0.580285 0.579464 0.581358 0.586748 0.593576 
0.596337 0.595211 0.604602 0.617169 0.607592 0.545049 0.487456 0.47749 0.487055 
0.504104 0.527559 0.555491 0.505756 0.411353 0.897426 0.805732 0.61963 0.580327 
0.579331 0.579919 0.579674 0.579386 0.582108 0.587904 0.594645 0.597086 0.596133 
0.606321 0.617269 0.571279 0.497516 0.47348 0.475674 0.488275 0.502966 0.525208 
0.563718 0.531403 0.419188 0.885683 0.754576 0.60311 0.579239 0.578748 0.57922 
0.579434 0.580053 0.583288 0.588851 0.594546 0.597499 0.599178 0.605817 0.584572 
0.513862 0.473997 0.468929 0.476197 0.488796 0.500499 0.524725 0.564239 0.554701 
0.429788 0.863876 0.694134 0.591328 0.577872 0.577865 0.578413 0.57938 0.580968 
0.58426 0.588577 0.594081 0.5987 0.603107 0.597373 0.533801 0.477961 0.466036 
0.46841 0.477174 0.488513 0.499636 0.522691 0.554508 0.565959 0.443328 0.831225 
0.64887 0.585054 0.577824 0.578193 0.578714 0.580274 0.582678 0.584965 0.58784 
0.593941 0.60405 0.596936 0.552446 0.488761 0.466302 0.464362 0.468562 0.476639 
0.485962 0.496152 0.51239 0.524994 0.531065 0.444696 1.00338 0.916843 0.930336 
0.693552 0.58822 0.581686 0.58259 0.584162 0.586083 0.586727 0.585064 0.581432 
0.582502 0.591527 0.600926 0.608607 0.615587 0.625885 0.642836 0.672094 0.67526 
0.574913 0.513397 0.422881 0.333448 1.00338 0.916843 0.930336 0.693552 0.58822 
0.581686 0.58259 0.584162 0.586083 0.586727 0.585064 0.581432 0.582502 0.591527 
0.600926 0.608607 0.615587 0.625885 0.642836 0.672094 0.67526 0.574913 0.513397 
0.422881 0.333448 1.00415 0.912624 0.915147 0.673386 0.585024 0.580979 0.582028 
0.583598 0.585217 0.585574 0.583989 0.580783 0.582692 0.591822 0.601108 0.60877 
0.615983 0.626855 0.6448 0.673188 0.669193 0.571179 0.505278 0.418927 0.344437 
0.999317 0.912545 0.916335 0.665868 0.584446 0.580979 0.582151 0.583561 0.585144 
0.585136 0.583882 0.581104 0.583612 0.592625 0.601866 0.609306 0.616875 0.62847 
0.647052 0.673189 0.663075 0.566867 0.491885 0.41164 0.357962 0.990502 0.915164 
0.912549 0.65339 0.583734 0.581156 0.582397 0.583771 0.584913 0.584979 0.583847 
0.581943 0.584796 0.593597 0.602573 0.610104 0.617998 0.630114 0.648976 0.671635 
0.655599 0.561032 0.476093 0.408468 0.369689 0.980575 0.91678 0.905393 0.641994 
0.582945 0.581173 0.582412 0.583604 0.58448 0.584439 0.583862 0.58298 0.585896 
0.594533 0.603355 0.611052 0.619388 0.632027 0.650767 0.668295 0.646538 0.550527 
0.459168 0.40839 0.374671 0.970862 0.915828 0.897114 0.630908 0.582595 0.581351 
0.582757 0.583591 0.584228 0.584032 0.584421 0.584082 0.587252 0.595469 0.604274 
0.612183 0.620963 0.634164 0.651933 0.663338 0.634037 0.534564 0.44912 0.410646 
0.378051 0.961556 0.912972 0.885642 0.621516 0.58209 0.581666 0.582843 0.583539 
0.583578 0.583917 0.584756 0.585751 0.588353 0.596546 0.60503 0.613426 0.622695 
0.636205 0.65209 0.654268 0.611726 0.515833 0.447742 0.414626 0.379508 0.952931 
0.909176 0.870806 0.612727 0.582061 0.581785 0.583162 0.583166 0.583303 0.583455 
0.585789 0.586977 0.589636 0.597257 0.605996 0.614834 0.624671 0.638035 0.650757 
0.639807 0.580704 0.505643 0.451655 0.418884 0.379548 0.945873 0.904746 0.850253 
0.605816 0.581745 0.582181 0.583064 0.58301 0.582502 0.58361 0.586551 0.588794 
0.590457 0.598131 0.606928 0.616702 0.626656 0.639339 0.643817 0.61069 0.546077 
0.503523 0.459574 0.422656 0.380474 0.93952 0.900426 0.824504 0.599309 0.581827 
0.582114 0.583205 0.582247 0.582158 0.583506 0.587804 0.590078 0.591332 0.598811 
0.608343 0.618369 0.628275 0.638709 0.632589 0.57211 0.523311 0.50712 0.471966 
0.426296 0.381921 0.934222 0.897137 0.792457 0.594422 0.581502 0.582378 0.582652 
0.581887 0.58141 0.58406 0.588894 0.591602 0.592061 0.599935 0.609815 0.620505 
0.630508 0.631768 0.5974 0.530718 0.507839 0.513399 0.486244 0.430745 0.384149 
0.928225 0.891804 0.756562 0.589839 0.581509 0.581888 0.582408 0.580894 0.581311 
0.584422 0.590165 0.5928 0.593096 0.601026 0.611392 0.622232 0.631035 0.619685 
0.552755 0.502567 0.502826 0.521003 0.502219 0.435602 0.386112 0.922677 0.885286 
0.71629 0.586657 0.580871 0.581673 0.581463 0.580423 0.580924 0.58522 0.591129 
0.594318 0.593859 0.602002 0.612807 0.624879 0.620679 0.574811 0.508124 0.490476 
0.503122 0.527072 0.518421 0.441631 0.387518 0.916215 0.872077 0.676756 0.583584 
0.58046 0.580938 0.580929 0.579693 0.581148 0.585783 0.592349 0.59552 0.594679 
0.602742 0.614332 0.626241 0.601748 0.524401 0.485999 0.486971 0.504635 0.530035 
0.534043 0.450554 0.388786 0.908699 0.848127 0.642034 0.58186 0.579762 0.580516 
0.58027 0.579547 0.58141 0.586719 0.593437 0.596558 0.59529 0.604682 0.617146 
0.606768 0.54574 0.488097 0.477972 0.487165 0.505497 0.530308 0.545085 0.464492 
0.391315 0.898913 0.809225 0.618546 0.580192 0.579411 0.579871 0.579757 0.579414 
0.582149 0.587808 0.594444 0.597404 0.596156 0.606702 0.617549 0.572067 0.497843 
0.473967 0.476021 0.488064 0.505476 0.527758 0.552338 0.481004 0.395721 0.887721 
0.756414 0.601962 0.579163 0.578736 0.579309 0.579431 0.580188 0.583347 0.588748 
0.594456 0.597924 0.599357 0.606089 0.585924 0.514017 0.474023 0.469285 0.476117 
0.488645 0.503308 0.524756 0.552856 0.492291 0.401597 0.865752 0.693832 0.59119 
0.577842 0.577959 0.578401 0.579388 0.580986 0.584402 0.588674 0.593832 0.599524 
0.603258 0.598696 0.533729 0.477613 0.465736 0.468358 0.477103 0.48886 0.500572 
0.521369 0.542943 0.489548 0.410752 0.83167 0.648121 0.584461 0.57777 0.578006 
0.578729 0.580403 0.582685 0.585165 0.587995 0.59448 0.604457 0.59828 0.552946 
0.488206 0.466127 0.464364 0.468518 0.476858 0.486484 0.494321 0.508447 0.509402 
0.458435 0.416543 1.00787 0.921661 0.936567 0.687476 0.586897 0.581544 0.582581 
0.584083 0.585936 0.586581 0.585323 0.581583 0.582671 0.591516 0.60096 0.608599 
0.615815 0.626289 0.643724 0.67273 0.672997 0.570133 0.505543 0.420491 0.338288 
1.00787 0.921661 0.936567 0.687476 0.586897 0.581544 0.582581 0.584083 0.585936 
0.586581 0.585323 0.581583 0.582671 0.591516 0.60096 0.608599 0.615815 0.626289 
0.643724 0.67273 0.672997 0.570133 0.505543 0.420491 0.338288 1.0086 0.917951 
0.919539 0.667552 0.584174 0.580877 0.582077 0.583476 0.58519 0.585491 0.58425 
0.581083 0.582818 0.591797 0.601258 0.608823 0.616263 0.627164 0.645597 0.673524 
0.667245 0.566674 0.498486 0.414617 0.348011 1.00226 0.91873 0.920791 0.659784 
0.583759 0.580956 0.582083 0.583579 0.584932 0.585336 0.58398 0.581514 0.583724 
0.592772 0.6019 0.609529 0.617131 0.628841 0.647843 0.673531 0.660474 0.562023 
0.487178 0.403211 0.357746 0.992789 0.919991 0.91687 0.648451 0.583194 0.581107 
0.582405 0.583692 0.584961 0.584923 0.584136 0.582327 0.584936 0.593688 0.602702 
0.610311 0.618245 0.630369 0.64962 0.671687 0.653276 0.557905 0.472404 0.397289 
0.366585 0.982099 0.920866 0.909196 0.637365 0.582671 0.581112 0.582484 0.583608 
0.58454 0.584497 0.584253 0.583159 0.586217 0.594628 0.603599 0.611232 0.619627 
0.632275 0.651407 0.668222 0.644131 0.5487 0.455896 0.394563 0.367748 0.971948 
0.918706 0.900072 0.627548 0.58223 0.581468 0.582748 0.583764 0.584183 0.584402 
0.584444 0.584711 0.58733 0.595785 0.604338 0.612379 0.621246 0.634174 0.652499 
0.663026 0.632391 0.534505 0.443587 0.394394 0.369911 0.96219 0.915742 0.888733 
0.618206 0.58212 0.581581 0.583061 0.583508 0.583968 0.583892 0.585208 0.585887 
0.588733 0.596582 0.60531 0.613596 0.622989 0.636129 0.652544 0.654013 0.61129 
0.516469 0.439505 0.39629 0.371628 0.953793 0.911124 0.87238 0.610595 0.581815 
0.581993 0.583128 0.583507 0.583304 0.583876 0.585747 0.587588 0.589778 0.597599 