# vtk DataFile Version 5.1
vtk output
ASCII
DATASET STRUCTURED_GRID
DIMENSIONS 12 25 12
POINTS 3600 float
1.81747 1.12391 0.55 1.81747 1.12541 0.55 1.81747 1.12821 0.55 
1.81747 1.13342 0.55 1.81747 1.14298 0.55 1.81747 1.16026 0.55 
1.81747 1.19046 0.55 1.81747 1.24033 0.55 1.81747 1.31549 0.55 
1.81747 1.41446 0.55 1.81747 1.52391 0.55 1.81747 1.62391 0.55 
1.81747 1.12391 0.553 1.81747 1.12541 0.553 1.81747 1.12821 0.553 
1.81747 1.13342 0.553 1.81747 1.14298 0.553 1.81747 1.16026 0.553 
1.81747 1.19046 0.553 1.81747 1.24033 0.553 1.81747 1.31549 0.553 
1.81747 1.41446 0.553 1.81747 1.52391 0.553 1.81747 1.62391 0.553 
1.81747 1.12391 0.55609 1.81747 1.12541 0.55609 1.81747 1.12821 0.55609 
1.81747 1.13342 0.55609 1.81747 1.14298 0.55609 1.81747 1.16026 0.55609 
1.81747 1.19046 0.55609 1.81747 1.24033 0.55609 1.81747 1.31549 0.55609 
1.81747 1.41446 0.55609 1.81747 1.52391 0.55609 1.81747 1.62391 0.55609 
1.81747 1.12391 0.559363 1.81747 1.12541 0.559363 1.81747 1.12821 0.559363 
1.81747 1.13342 0.559363 1.81747 1.14298 0.559363 1.81747 1.16026 0.559363 
1.81747 1.19046 0.559363 1.81747 1.24033 0.559363 1.81747 1.31549 0.559363 
1.81747 1.41446 0.559363 1.81747 1.52391 0.559363 1.81747 1.62391 0.559363 
1.81747 1.12391 0.562918 1.81747 1.12541 0.562918 1.81747 1.12821 0.562918 
1.81747 1.13342 0.562918 1.81747 1.14298 0.562918 1.81747 1.16026 0.562918 
1.81747 1.19046 0.562918 1.81747 1.24033 0.562918 1.81747 1.31549 0.562918 
1.81747 1.41446 0.562918 1.81747 1.52391 0.562918 1.81747 1.62391 0.562918 
1.81747 1.12391 0.566862 1.81747 1.12541 0.566862 1.81747 1.12821 0.566862 
1.81747 1.13342 0.566862 1.81747 1.14298 0.566862 1.81747 1.16026 0.566862 
1.81747 1.19046 0.566862 1.81747 1.24033 0.566862 1.81747 1.31549 0.566862 
1.81747 1.41446 0.566862 1.81747 1.52391 0.566862 1.81747 1.62391 0.566862 
1.81747 1.12391 0.571312 1.81747 1.12541 0.571312 1.81747 1.12821 0.571312 
1.81747 1.13342 0.571312 1.81747 1.14298 0.571312 1.81747 1.16026 0.571312 
1.81747 1.19046 0.571312 1.81747 1.24033 0.571312 1.81747 1.31549 0.571312 
1.81747 1.41446 0.571312 1.81747 1.52391 0.571312 1.81747 1.62391 0.571312 
1.81747 1.12391 0.576403 1.81747 1.12541 0.576403 1.81747 1.12821 0.576403 
1.81747 1.13342 0.576403 1.81747 1.14298 0.576403 1.81747 1.16026 0.576403 
1.81747 1.19046 0.576403 1.81747 1.24033 0.576403 1.81747 1.31549 0.576403 
1.81747 1.41446 0.576403 1.81747 1.52391 0.576403 1.81747 1.62391 0.576403 
1.81747 1.12391 0.582287 1.81747 1.12541 0.582287 1.81747 1.12821 0.582287 
1.81747 1.13342 0.582287 1.81747 1.14298 0.582287 1.81747 1.16026 0.582287 
1.81747 1.19046 0.582287 1.81747 1.24033 0.582287 1.81747 1.31549 0.582287 
1.81747 1.41446 0.582287 1.81747 1.52391 0.582287 1.81747 1.62391 0.582287 
1.81747 1.12391 0.589143 1.81747 1.12541 0.589143 1.81747 1.12821 0.589143 
1.81747 1.13342 0.589143 1.81747 1.14298 0.589143 1.81747 1.16026 0.589143 
1.81747 1.19046 0.589143 1.81747 1.24033 0.589143 1.81747 1.31549 0.589143 
1.81747 1.41446 0.589143 1.81747 1.52391 0.589143 1.81747 1.62391 0.589143 
1.81747 1.12391 0.597175 1.81747 1.12541 0.597175 1.81747 1.12821 0.597175 
1.81747 1.13342 0.597175 1.81747 1.14298 0.597175 1.81747 1.16026 0.597175 
1.81747 1.19046 0.597175 1.81747 1.24033 0.597175 1.81747 1.31549 0.597175 
1.81747 1.41446 0.597175 1.81747 1.52391 0.597175 1.81747 1.62391 0.597175 
1.81747 1.12391 0.606626 1.81747 1.12541 0.606626 1.81747 1.12821 0.606626 
1.81747 1.13342 0.606626 1.81747 1.14298 0.606626 1.81747 1.16026 0.606626 
1.81747 1.19046 0.606626 1.81747 1.24033 0.606626 1.81747 1.31549 0.606626 
1.81747 1.41446 0.606626 1.81747 1.52391 0.606626 1.81747 1.62391 0.606626 
1.81747 1.12391 0.617779 1.81747 1.12541 0.617779 1.81747 1.12821 0.617779 
1.81747 1.13342 0.617779 1.81747 1.14298 0.617779 1.81747 1.16026 0.617779 
1.81747 1.19046 0.617779 1.81747 1.24033 0.617779 1.81747 1.31549 0.617779 
1.81747 1.41446 0.617779 1.81747 1.52391 0.617779 1.81747 1.62391 0.617779 
1.81747 1.12391 0.630969 1.81747 1.12541 0.630969 1.81747 1.12821 0.630969 
1.81747 1.13342 0.630969 1.81747 1.14298 0.630969 1.81747 1.16026 0.630969 
1.81747 1.19046 0.630969 1.81747 1.24033 0.630969 1.81747 1.31549 0.630969 
1.81747 1.41446 0.630969 1.81747 1.52391 0.630969 1.81747 1.62391 0.630969 
1.81747 1.12391 0.646595 1.81747 1.12541 0.646595 1.81747 1.12821 0.646595 
1.81747 1.13342 0.646595 1.81747 1.14298 0.646595 1.81747 1.16026 0.646595 
1.81747 1.19046 0.646595 1.81747 1.24033 0.646595 1.81747 1.31549 0.646595 
1.81747 1.41446 0.646595 1.81747 1.52391 0.646595 1.81747 1.62391 0.646595 
1.81747 1.12391 0.665124 1.81747 1.12541 0.665124 1.81747 1.12821 0.665124 
1.81747 1.13342 0.665124 1.81747 1.14298 0.665124 1.81747 1.16026 0.665124 
1.81747 1.19046 0.665124 1.81747 1.24033 0.665124 1.81747 1.31549 0.665124 
1.81747 1.41446 0.665124 1.81747 1.52391 0.665124 1.81747 1.62391 0.665124 
1.81747 1.12391 0.687115 1.81747 1.12541 0.687115 1.81747 1.12821 0.687115 
1.81747 1.13342 0.687115 1.81747 1.14298 0.687115 1.81747 1.16026 0.687115 
1.81747 1.19046 0.687115 1.81747 1.24033 0.687115 1.81747 1.31549 0.687115 
1.81747 1.41446 0.687115 1.81747 1.52391 0.687115 1.81747 1.62391 0.687115 
1.81747 1.12391 0.713228 1.81747 1.12541 0.713228 1.81747 1.12821 0.713228 
1.81747 1.13342 0.713228 1.81747 1.14298 0.713228 1.81747 1.16026 0.713228 
1.81747 1.19046 0.713228 1.81747 1.24033 0.713228 1.81747 1.31549 0.713228 
1.81747 1.41446 0.713228 1.81747 1.52391 0.713228 1.81747 1.62391 0.713228 
1.81747 1.12391 0.744248 1.81747 1.12541 0.744248 1.81747 1.12821 0.744248 
1.81747 1.13342 0.744248 1.81747 1.14298 0.744248 1.81747 1.16026 0.744248 
1.81747 1.19046 0.744248 1.81747 1.24033 0.744248 1.81747 1.31549 0.744248 
1.81747 1.41446 0.744248 1.81747 1.52391 0.744248 1.81747 1.62391 0.744248 
1.81747 1.12391 0.781109 1.81747 1.12541 0.781109 1.81747 1.12821 0.781109 
1.81747 1.13342 0.781109 1.81747 1.14298 0.781109 1.81747 1.16026 0.781109 
1.81747 1.19046 0.781109 1.81747 1.24033 0.781109 1.81747 1.31549 0.781109 
1.81747 1.41446 0.781109 1.81747 1.52391 0.781109 1.81747 1.62391 0.781109 
1.81747 1.12391 0.824918 1.81747 1.12541 0.824918 1.81747 1.12821 0.824918 
1.81747 1.13342 0.824918 1.81747 1.14298 0.824918 1.81747 1.16026 0.824918 
1.81747 1.19046 0.824918 1.81747 1.24033 0.824918 1.81747 1.31549 0.824918 
1.81747 1.41446 0.824918 1.81747 1.52391 0.824918 1.81747 1.62391 0.824918 
1.81747 1.12391 0.876993 1.81747 1.12541 0.876993 1.81747 1.12821 0.876993 
1.81747 1.13342 0.876993 1.81747 1.14298 0.876993 1.81747 1.16026 0.876993 
1.81747 1.19046 0.876993 1.81747 1.24033 0.876993 1.81747 1.31549 0.876993 
1.81747 1.41446 0.876993 1.81747 1.52391 0.876993 1.81747 1.62391 0.876993 
1.81747 1.12391 0.938899 1.81747 1.12541 0.938899 1.81747 1.12821 0.938899 
1.81747 1.13342 0.938899 1.81747 1.14298 0.938899 1.81747 1.16026 0.938899 
1.81747 1.19046 0.938899 1.81747 1.24033 0.938899 1.81747 1.31549 0.938899 
1.81747 1.41446 0.938899 1.81747 1.52391 0.938899 1.81747 1.62391 0.938899 
1.81747 1.12391 1.0125 1.81747 1.12541 1.0125 1.81747 1.12821 1.0125 
1.81747 1.13342 1.0125 1.81747 1.14298 1.0125 1.81747 1.16026 1.0125 
1.81747 1.19046 1.0125 1.81747 1.24033 1.0125 1.81747 1.31549 1.0125 
1.81747 1.41446 1.0125 1.81747 1.52391 1.0125 1.81747 1.62391 1.0125 
1.81747 1.12391 1.1 1.81747 1.12541 1.1 1.81747 1.12821 1.1 
1.81747 1.13342 1.1 1.81747 1.14298 1.1 1.81747 1.16026 1.1 
1.81747 1.19046 1.1 1.81747 1.24033 1.1 1.81747 1.31549 1.1 
1.81747 1.41446 1.1 1.81747 1.52391 1.1 1.81747 1.62391 1.1 
1.82747 1.12391 0.55 1.82747 1.12541 0.55 1.82747 1.12821 0.55 
1.82747 1.13342 0.55 1.82747 1.14298 0.55 1.82747 1.16026 0.55 
1.82747 1.19046 0.55 1.82747 1.24033 0.55 1.82747 1.31549 0.55 
1.82747 1.41446 0.55 1.82747 1.52391 0.55 1.82747 1.62391 0.55 
1.82747 1.12391 0.553 1.82747 1.12541 0.553 1.82747 1.12821 0.553 
1.82747 1.13342 0.553 1.82747 1.14298 0.553 1.82747 1.16026 0.553 
1.82747 1.19046 0.553 1.82747 1.24033 0.553 1.82747 1.31549 0.553 
1.82747 1.41446 0.553 1.82747 1.52391 0.553 1.82747 1.62391 0.553 
1.82747 1.12391 0.55609 1.82747 1.12541 0.55609 1.82747 1.12821 0.55609 
1.82747 1.13342 0.55609 1.82747 1.14298 0.55609 1.82747 1.16026 0.55609 
1.82747 1.19046 0.55609 1.82747 1.24033 0.55609 1.82747 1.31549 0.55609 
1.82747 1.41446 0.55609 1.82747 1.52391 0.55609 1.82747 1.62391 0.55609 
1.82747 1.12391 0.559363 1.82747 1.12541 0.559363 1.82747 1.12821 0.559363 
1.82747 1.13342 0.559363 1.82747 1.14298 0.559363 1.82747 1.16026 0.559363 
1.82747 1.19046 0.559363 1.82747 1.24033 0.559363 1.82747 1.31549 0.559363 
1.82747 1.41446 0.559363 1.82747 1.52391 0.559363 1.82747 1.62391 0.559363 
1.82747 1.12391 0.562918 1.82747 1.12541 0.562918 1.82747 1.12821 0.562918 
1.82747 1.13342 0.562918 1.82747 1.14298 0.562918 1.82747 1.16026 0.562918 
1.82747 1.19046 0.562918 1.82747 1.24033 0.562918 1.82747 1.31549 0.562918 
1.82747 1.41446 0.562918 1.82747 1.52391 0.562918 1.82747 1.62391 0.562918 
1.82747 1.12391 0.566862 1.82747 1.12541 0.566862 1.82747 1.12821 0.566862 
1.82747 1.13342 0.566862 1.82747 1.14298 0.566862 1.82747 1.16026 0.566862 
1.82747 1.19046 0.566862 1.82747 1.24033 0.566862 1.82747 1.31549 0.566862 
1.82747 1.41446 0.566862 1.82747 1.52391 0.566862 1.82747 1.62391 0.566862 
1.82747 1.12391 0.571312 1.82747 1.12541 0.571312 1.82747 1.12821 0.571312 
1.82747 1.13342 0.571312 1.82747 1.14298 0.571312 1.82747 1.16026 0.571312 
1.82747 1.19046 0.571312 1.82747 1.24033 0.571312 1.82747 1.31549 0.571312 
1.82747 1.41446 0.571312 1.82747 1.52391 0.571312 1.82747 1.62391 0.571312 
1.82747 1.12391 0.576403 1.82747 1.12541 0.576403 1.82747 1.12821 0.576403 
1.82747 1.13342 0.576403 1.82747 1.14298 0.576403 1.82747 1.16026 0.576403 
1.82747 1.19046 0.576403 1.82747 1.24033 0.576403 1.82747 1.31549 0.576403 
1.82747 1.41446 0.576403 1.82747 1.52391 0.576403 1.82747 1.62391 0.576403 
1.82747 1.12391 0.582287 1.82747 1.12541 0.582287 1.82747 1.12821 0.582287 
[...]
POINT_DATA 3600
FIELD FieldData 5
pressure 1 3600 float
0.312725 0.312725 0.317963 0.324333 0.333079 0.340911 0.346466 0.352295 0.349033 
0.271924 0.187344 0.178985 0.241986 0.269244 0.298868 0.317752 0.329645 0.338916 
0.344936 0.35128 0.348102 0.269487 0.186868 0.17896 0.271846 0.280473 0.296306 
0.313453 0.326861 0.337049 0.343528 0.35012 0.347323 0.267366 0.186443 0.17894 
0.282282 0.288373 0.297393 0.310663 0.324156 0.334921 0.341909 0.348811 0.34625 
0.26515 0.186085 0.178922 0.290973 0.294189 0.300082 0.309548 0.321881 0.332736 
0.340239 0.34735 0.345232 0.262758 0.185685 0.178904 0.296063 0.298051 0.302459 
0.309241 0.31988 0.330465 0.338326 0.345794 0.343966 0.260079 0.185278 0.178882 
0.299289 0.300912 0.304113 0.309437 0.317949 0.328107 0.336311 0.343988 0.342643 
0.257031 0.184819 0.178861 0.301318 0.302853 0.305222 0.309307 0.316281 0.325728 
0.334086 0.342068 0.340988 0.253507 0.184332 0.178836 0.302681 0.304111 0.305716 
0.309023 0.314867 0.323371 0.331766 0.339936 0.339155 0.249459 0.183797 0.178812 
0.303729 0.30496 0.306187 0.308894 0.313785 0.321025 0.329431 0.337822 0.336835 
0.244807 0.183232 0.178782 0.304491 0.305559 0.306446 0.308838 0.312654 0.318838 
0.327061 0.335692 0.334186 0.239514 0.182629 0.178753 0.304932 0.30576 0.306545 
0.30847 0.311675 0.316829 0.324857 0.333727 0.330767 0.233245 0.182004 0.17872 
0.304878 0.305568 0.306422 0.307878 0.310626 0.315247 0.32273 0.331623 0.326287 
0.226195 0.181386 0.178688 0.304094 0.304751 0.305535 0.306866 0.309404 0.313406 
0.320609 0.328935 0.319684 0.217741 0.180774 0.178655 0.302248 0.302888 0.303773 
0.305054 0.307636 0.311471 0.318424 0.325927 0.310472 0.208614 0.180218 0.178628 
0.298875 0.299618 0.300346 0.301789 0.304176 0.308119 0.31503 0.321616 0.29794 
0.199618 0.179706 0.178604 0.295087 0.295861 0.296533 0.297841 0.300084 0.303687 
0.309844 0.315746 0.278477 0.191693 0.179251 0.178587 0.29029 0.290745 0.291212 
0.292291 0.293939 0.296909 0.302764 0.308622 0.252654 0.185541 0.178902 0.178573 
0.286644 0.286783 0.287015 0.287726 0.288987 0.292143 0.299659 0.298646 0.221666 
0.181338 0.178683 0.178566 0.281516 0.281999 0.282361 0.283034 0.284157 0.28648 
0.290604 0.271062 0.194798 0.17946 0.17859 0.178565 0.271932 0.272332 0.272634 
0.272902 0.273293 0.273759 0.268955 0.221307 0.182463 0.178752 0.178564 0.17857 
0.257494 0.257153 0.256851 0.256589 0.256431 0.252971 0.23087 0.188367 0.179242 
0.178575 0.178565 0.178574 0.233838 0.233218 0.232558 0.231144 0.228064 0.216212 
0.189631 0.179738 0.178608 0.178561 0.178572 0.178574 0.202455 0.201463 0.199938 
0.197438 0.192678 0.185267 0.179778 0.178639 0.178557 0.178571 0.178574 0.178573 
0.179776 0.179539 0.179199 0.178575 0.177765 0.177844 0.178434 0.178575 0.178571 
0.178573 0.178573 0.178573 0.157319 0.157319 0.185981 0.239163 0.299944 0.333424 
0.345117 0.351755 0.350235 0.283206 0.190163 0.179172 0.213499 0.212561 0.217281 
0.248098 0.299747 0.332048 0.343568 0.350632 0.349334 0.280879 0.189592 0.179139 
0.221375 0.223476 0.235218 0.260094 0.301583 0.33069 0.342054 0.349486 0.348582 
0.278673 0.189061 0.179109 0.24469 0.247637 0.256587 0.272709 0.3041 0.329213 
0.340439 0.348164 0.347597 0.276406 0.188596 0.179083 0.264453 0.267102 0.273118 
0.284132 0.30685 0.327795 0.338768 0.346758 0.346646 0.273965 0.188089 0.179057 
0.280435 0.282006 0.285991 0.293443 0.309248 0.326361 0.336915 0.345235 0.345525 
0.271262 0.187572 0.179028 0.290135 0.291225 0.294171 0.299621 0.310715 0.324858 
0.334972 0.343562 0.34432 0.268209 0.186992 0.178998 0.295886 0.297001 0.299169 
0.303328 0.311471 0.323252 0.332841 0.341777 0.342876 0.264663 0.186367 0.178963 
0.299447 0.300733 0.302134 0.305547 0.311637 0.321536 0.330653 0.339817 0.341234 
0.260527 0.185668 0.178927 0.301655 0.302962 0.304002 0.306789 0.311594 0.319763 
0.328433 0.33782 0.33919 0.255634 0.184918 0.178886 0.303041 0.304135 0.304991 
0.307447 0.311245 0.318047 0.326141 0.3358 0.336748 0.250034 0.184107 0.178844 
0.303604 0.304465 0.305271 0.307356 0.31056 0.316283 0.324061 0.333872 0.333608 
0.24345 0.183256 0.178797 0.303763 0.304339 0.305221 0.306778 0.309698 0.314565 
0.322178 0.331817 0.329523 0.236123 0.182399 0.178751 0.303201 0.303544 0.304491 
0.305834 0.308533 0.312911 0.320242 0.329115 0.323842 0.227274 0.181541 0.178705 
0.301601 0.302107 0.303039 0.304323 0.306987 0.311078 0.317985 0.325714 0.316158 
0.217051 0.18077 0.178663 0.298158 0.298754 0.299623 0.301001 0.303383 0.307265 
0.31365 0.32097 0.306031 0.206463 0.180121 0.178627 0.294724 0.295251 0.296022 
0.297248 0.299466 0.302613 0.30801 0.315437 0.289766 0.196203 0.179519 0.178599 
0.290494 0.290878 0.291378 0.292371 0.293987 0.29685 0.301787 0.309222 0.264809 
0.188304 0.179056 0.178578 0.287234 0.287489 0.287825 0.288655 0.290178 0.293476 
0.300638 0.300839 0.232241 0.182613 0.178752 0.178566 0.281584 0.281971 0.282438 
0.28316 0.28446 0.287 0.292362 0.280766 0.201722 0.179886 0.178614 0.178564 
0.271829 0.27213 0.272447 0.272757 0.273314 0.274318 0.272122 0.232269 0.184512 
0.178867 0.178565 0.178571 0.259383 0.259149 0.2589 0.258548 0.25815 0.255836 
0.240156 0.19297 0.179642 0.178598 0.178561 0.178575 0.235755 0.235202 0.234601 
0.233438 0.231832 0.223328 0.195031 0.180421 0.178658 0.178555 0.178574 0.178573 
0.206483 0.205501 0.203907 0.201234 0.19643 0.188193 0.180635 0.178716 0.178556 
0.178572 0.178574 0.178572 0.180881 0.180623 0.180206 0.179504 0.178299 0.177735 
0.178308 0.178553 0.178574 0.178572 0.178572 0.178573 0.194139 0.194139 0.187815 
0.193193 0.228617 0.303071 0.339151 0.350528 0.350826 0.295941 0.194253 0.179465 
0.220647 0.220165 0.214803 0.213224 0.238256 0.303867 0.337878 0.349411 0.349919 
0.29367 0.193556 0.179419 0.214807 0.212837 0.217093 0.22229 0.247383 0.305046 
0.336601 0.348349 0.349141 0.291463 0.192904 0.179375 0.220359 0.221466 0.227598 
0.233237 0.257222 0.306308 0.335431 0.347125 0.348164 0.289216 0.19231 0.179339 
0.233538 0.235235 0.238551 0.245785 0.26674 0.308166 0.334237 0.345868 0.347219 
0.286768 0.191667 0.1793 0.249021 0.250743 0.253197 0.259152 0.276621 0.310265 
0.332961 0.344494 0.34614 0.28407 0.190998 0.17926 0.265242 0.266476 0.26807 
0.273018 0.286421 0.312387 0.33159 0.343005 0.345 0.28104 0.190266 0.179216 
0.279583 0.28063 0.281631 0.285491 0.295023 0.31419 0.330115 0.341409 0.343717 
0.277547 0.189467 0.179167 0.289881 0.291002 0.291752 0.29484 0.301361 0.315337 
0.328574 0.339679 0.342305 0.273467 0.188572 0.179115 0.295809 0.297123 0.297829 
0.300563 0.305312 0.315713 0.326965 0.33788 0.340662 0.268533 0.187578 0.179056 
0.299667 0.300834 0.301535 0.303925 0.307565 0.315574 0.325263 0.335986 0.338649 
0.262723 0.186488 0.178994 0.301671 0.302546 0.303348 0.305404 0.308465 0.314999 
0.323545 0.333966 0.335965 0.25587 0.185321 0.178926 0.302291 0.302857 0.303799 
0.305426 0.308391 0.313838 0.321804 0.331754 0.332272 0.248354 0.184124 0.178858 
0.301793 0.302102 0.303162 0.304485 0.307322 0.312134 0.319535 0.328881 0.327355 
0.239335 0.182885 0.178789 0.300065 0.300502 0.301456 0.302692 0.305369 0.309708 
0.316658 0.32538 0.321097 0.228224 0.181704 0.178725 0.296756 0.297324 0.29817 
0.299345 0.30174 0.305625 0.31176 0.320722 0.313056 0.216157 0.180752 0.178671 
0.293766 0.294211 0.294922 0.295905 0.297966 0.300938 0.306111 0.315417 0.300431 
0.203525 0.179975 0.17863 0.29051 0.290862 0.291299 0.292134 0.293663 0.296476 
0.301018 0.30927 0.278857 0.192657 0.179327 0.178599 0.287994 0.288321 0.288783 
0.289716 0.291424 0.294642 0.300908 0.302442 0.245928 0.184831 0.17887 0.178578 
0.281514 0.281872 0.282384 0.283104 0.284613 0.287501 0.294156 0.288752 0.212078 
0.180578 0.178648 0.178563 0.271336 0.271574 0.271876 0.272181 0.272944 0.274722 
0.275257 0.246258 0.188008 0.179082 0.17858 0.178563 0.261575 0.261465 0.26131 
0.261076 0.260469 0.258941 0.249516 0.200986 0.18029 0.178625 0.178563 0.178571 
0.238242 0.237838 0.237565 0.23719 0.236491 0.229936 0.203608 0.181832 0.17876 
0.178566 0.178566 0.178575 0.21176 0.210848 0.209333 0.206713 0.201755 0.192613 
0.182222 0.178892 0.178565 0.178565 0.178575 0.178575 0.182428 0.182148 0.181664 
0.18087 0.179353 0.177846 0.178193 0.178553 0.178569 0.178572 0.178574 0.178573 
0.182471 0.182471 0.186107 0.179403 0.186253 0.236339 0.318376 0.34636 0.352289 
0.310587 0.200628 0.179973 0.200383 0.197934 0.201647 0.192814 0.1957 0.240262 
0.317949 0.345383 0.351398 0.308464 0.199701 0.179907 0.195841 0.194671 0.195122 
0.196238 0.202758 0.24501 0.31761 0.344572 0.350582 0.306336 0.198856 0.179843 
0.19652 0.195767 0.197786 0.202283 0.210391 0.251232 0.317685 0.343649 0.349593 
0.304202 0.198067 0.17979 0.203508 0.203492 0.206219 0.20965 0.21921 0.257813 
0.317938 0.34276 0.348609 0.301842 0.197219 0.179732 0.215002 0.215447 0.217558 
0.220628 0.230013 0.26531 0.318401 0.341794 0.347506 0.299227 0.196329 0.179671 
0.229644 0.230075 0.231177 0.233724 0.242453 0.27355 0.319043 0.340773 0.346325 
0.296249 0.195356 0.179605 0.245479 0.24595 0.24604 0.248546 0.256226 0.282517 
0.319863 0.33967 0.345007 0.292802 0.194294 0.179533 0.262577 0.263175 0.263236 
0.265418 0.271243 0.291672 0.32068 0.338469 0.343541 0.288796 0.19312 0.179453 
0.278111 0.278923 0.27885 0.280722 0.284993 0.300244 0.321388 0.337172 0.341887 
0.284034 0.191813 0.179365 0.289869 0.290886 0.291175 0.293031 0.296355 0.306687 
0.321763 0.335698 0.339923 0.278399 0.190369 0.179269 0.296036 0.296984 0.29766 
0.299542 0.302684 0.310242 0.321533 0.333794 0.337439 0.271585 0.188782 0.179166 
0.299057 0.299664 0.300596 0.302226 0.305248 0.311354 0.32066 0.331412 0.334086 
0.263569 0.187097 0.179058 0.299485 0.299826 0.30092 0.302311 0.305259 0.310468 
0.318481 0.328288 0.329935 0.254314 0.185324 0.178948 0.29798 0.298436 0.299407 
0.300722 0.303402 0.307865 0.314977 0.324653 0.325057 0.242932 0.183522 0.178841 
0.294709 0.295269 0.29602 0.297155 0.299439 0.303078 0.309191 0.320177 0.318901 
0.229594 0.181939 0.178749 0.29223 0.292597 0.293201 0.294042 0.295809 0.298532 
0.303792 0.315652 0.309246 0.214676 0.18069 0.178674 0.290265 0.290613 0.291049 
0.291828 0.293237 0.295756 0.30027 0.309587 0.292397 0.2003 0.179779 0.178617 
0.288661 0.289012 0.289565 0.290529 0.292268 0.295301 0.300582 0.303392 0.26281 
0.188687 0.179107 0.178582 0.281455 0.281808 0.282366 0.28317 0.284877 0.288068 
0.295172 0.29457 0.226807 0.182041 0.178736 0.17857 0.270644 0.270812 0.271136 
0.271493 0.272417 0.274699 0.277906 0.262546 0.194783 0.179473 0.17859 0.17857 
0.263415 0.263411 0.263324 0.263268 0.262924 0.26243 0.257947 0.213329 0.181744 
0.178721 0.178562 0.178573 0.242051 0.241775 0.241712 0.241768 0.241051 0.236072 
0.215066 0.184812 0.178981 0.178558 0.178574 0.178572 0.217982 0.217213 0.215909 
0.213671 0.20875 0.198933 0.185295 0.179237 0.178582 0.178571 0.178573 0.17857 
0.184426 0.184141 0.183652 0.18282 0.181177 0.17858 0.177951 0.178459 0.178583 
0.17857 0.178571 0.178574 0.192893 0.192893 0.196895 0.199095 0.193689 0.210945 
0.271252 0.332483 0.354068 0.32545 0.210835 0.180821 0.202487 0.200222 0.207557 
0.206273 0.200661 0.217194 0.273232 0.33199 0.353329 0.323685 0.209583 0.180725 
0.198491 0.198067 0.201136 0.204994 0.205533 0.222885 0.275274 0.331754 0.352559 
0.321816 0.208454 0.180633 0.198534 0.19922 0.200748 0.206015 0.210324 0.228064 
0.277734 0.33155 0.351628 0.319976 0.20738 0.180554 0.201598 0.202327 0.204961 
0.210736 0.215692 0.233433 0.280433 0.331464 0.35067 0.317913 0.206234 0.180469 
0.209734 0.210019 0.212481 0.216503 0.221783 0.23903 0.283757 0.331404 0.349591 
0.315629 0.205024 0.180378 0.218477 0.218793 0.221006 0.224095 0.229138 0.24543 
0.287642 0.331399 0.348402 0.312995 0.203703 0.18028 0.227559 0.227924 0.229833 
0.232415 0.237736 0.252817 0.292142 0.331481 0.347042 0.309939 0.202259 0.180171 
0.237823 0.238319 0.239669 0.24216 0.247778 0.261606 0.297265 0.33162 0.345464 
0.306354 0.200666 0.180052 0.250514 0.251208 0.252151 0.254436 0.259692 0.27167 
0.302771 0.331717 0.343596 0.302114 0.198904 0.17992 0.265293 0.266069 0.266677 
0.268635 0.272992 0.283305 0.308099 0.331516 0.341349 0.297009 0.196953 0.179775 
0.28035 0.281051 0.281516 0.283139 0.286339 0.294478 0.312362 0.330728 0.338709 
0.290764 0.194784 0.179615 0.290345 0.291008 0.291766 0.293242 0.296028 0.302272 
0.314851 0.329218 0.33553 0.282812 0.192396 0.179442 0.293816 0.294202 0.295153 
0.296573 0.299515 0.30492 0.314391 0.326589 0.332004 0.27323 0.189856 0.179263 
0.294238 0.29469 0.295559 0.296884 0.299481 0.303923 0.311635 0.32332 0.328078 
0.261822 0.187188 0.179085 0.292231 0.292797 0.293439 0.2946 0.296753 0.300413 
0.306764 0.319179 0.323168 0.248025 0.184595 0.178922 0.29054 0.290877 0.291389 
0.292242 0.2939 0.296728 0.302259 0.315206 0.31591 0.231583 0.182344 0.178792 
0.289729 0.290067 0.290551 0.291338 0.292777 0.295227 0.299685 0.31017 0.303473 
0.214111 0.180687 0.178696 0.28875 0.289119 0.289714 0.290635 0.292291 0.294986 
0.299344 0.304196 0.28307 0.196852 0.179564 0.178627 0.281429 0.281781 0.28239 
0.283299 0.28513 0.288299 0.294669 0.297502 0.247184 0.185484 0.17891 0.178574 
0.270147 0.270327 0.270738 0.271264 0.272468 0.274948 0.280494 0.275832 0.207879 
0.180387 0.178657 0.178552 0.264799 0.264874 0.264925 0.265024 0.265139 0.265847 
0.264894 0.231626 0.185382 0.178899 0.178576 0.178565 0.246563 0.246416 0.246349 
0.246239 0.245333 0.241887 0.22961 0.19165 0.179524 0.178611 0.178551 0.178579 
0.22456 0.224089 0.223169 0.221673 0.217294 0.20857 0.191305 0.18027 0.178647 
0.178552 0.178577 0.178579 0.186906 0.186651 0.186226 0.18545 0.183864 0.180492 
0.177978 0.178436 0.178551 0.178577 0.178574 0.178571 0.186658 0.186658 0.190835 
0.195576 0.192096 0.188154 0.213156 0.295464 0.348135 0.344352 0.229394 0.182706 
0.194764 0.193468 0.199892 0.202603 0.196905 0.192225 0.216219 0.29608 0.347752 
0.342978 0.227759 0.182525 0.192692 0.193297 0.195612 0.197826 0.198958 0.195854 
0.21952 0.297002 0.34728 0.341477 0.226243 0.182358 0.191719 0.192566 0.193541 
0.196633 0.200234 0.199835 0.223144 0.298079 0.346666 0.339933 0.224779 0.182218 
0.193557 0.193803 0.194011 0.198457 0.202572 0.20384 0.227324 0.299434 0.346035 
0.338195 0.223217 0.182063 0.198263 0.197792 0.198897 0.201333 0.205553 0.208367 
0.232035 0.301012 0.345323 0.336254 0.221551 0.181905 0.204391 0.203843 0.205055 
0.206914 0.21006 0.213744 0.237384 0.302931 0.344541 0.333989 0.219724 0.181731 
0.210281 0.209907 0.211178 0.212704 0.215475 0.219928 0.243622 0.30517 0.343644 
0.331337 0.217707 0.181544 0.216409 0.216327 0.217714 0.21918 0.222268 0.227306 
0.250812 0.307789 0.34259 0.328158 0.21546 0.181337 0.223953 0.22437 0.225491 
0.227122 0.23042 0.236203 0.259212 0.310713 0.341313 0.324344 0.212938 0.181112 
0.234333 0.235042 0.2358 0.237637 0.240597 0.247005 0.269062 0.313766 0.339716 
0.319701 0.210097 0.180865 0.247994 0.248718 0.249282 0.250785 0.253253 0.259398 
0.279651 0.316538 0.337787 0.314089 0.206889 0.180595 0.263517 0.264129 0.264495 
0.265756 0.267754 0.273413 0.290089 0.318599 0.335498 0.307147 0.203256 0.1803 
0.27762 0.278098 0.278517 0.279525 0.281349 0.285952 0.29842 0.319119 0.33297 
0.298448 0.199241 0.179987 0.285345 0.285829 0.286331 0.287362 0.289235 0.29325 
0.302031 0.318309 0.329909 0.287561 0.194984 0.179659 0.287246 0.28783 0.288284 
0.289377 0.291317 0.294974 0.301882 0.316134 0.325654 0.273753 0.190707 0.179338 
0.28794 0.288313 0.288742 0.28965 0.291354 0.294481 0.30041 0.31349 0.319669 
0.256066 0.186645 0.179049 0.288461 0.288845 0.289371 0.290231 0.291863 0.294618 
0.299503 0.309884 0.310553 0.235381 0.183267 0.178827 0.287468 0.287801 0.288396 
0.289222 0.290752 0.293169 0.297319 0.306 0.299386 0.213251 0.180818 0.178686 
0.280636 0.280961 0.281585 0.282464 0.284236 0.286966 0.292104 0.299475 0.275849 
0.19438 0.17944 0.178623 0.270817 0.271085 0.271524 0.272287 0.273856 0.276375 
0.281797 0.284873 0.231338 0.183434 0.178768 0.178594 0.265102 0.265244 0.265464 
0.265767 0.26648 0.268452 0.271686 0.255496 0.195334 0.179585 0.178599 0.178566 
0.249758 0.249689 0.249471 0.249246 0.248757 0.247719 0.243741 0.206277 0.181464 
0.178657 0.178587 0.178562 0.229905 0.22962 0.229216 0.228438 0.225831 0.221219 
0.203136 0.183611 0.178881 0.178591 0.178562 0.178565 0.189917 0.189695 0.189346 
0.188698 0.187371 0.184396 0.179297 0.178091 0.178573 0.178562 0.178569 0.178577 
0.184083 0.184083 0.189692 0.196926 0.198471 0.195939 0.207989 0.249403 0.320099 
0.354893 0.261262 0.188408 0.193963 0.192529 0.196709 0.20161 0.201206 0.199045 
0.211474 0.251314 0.320525 0.353897 0.259356 0.188004 0.194662 0.195152 0.194572 
0.197502 0.201226 0.201263 0.214715 0.253216 0.320921 0.352884 0.25754 0.187635 
0.193542 0.193963 0.192834 0.195825 0.201192 0.203587 0.218083 0.255269 0.321263 
0.351798 0.255763 0.187305 0.195089 0.195184 0.194087 0.195907 0.202607 0.205837 
0.221376 0.257491 0.321681 0.350618 0.253813 0.186952 0.197921 0.197376 0.196683 
0.199526 0.204984 0.20888 0.224647 0.259997 0.32214 0.349322 0.251695 0.186578 
0.203587 0.202875 0.202846 0.204962 0.208473 0.212335 0.22811 0.26273 0.322677 
0.34783 0.24931 0.186173 0.208093 0.207496 0.208215 0.209628 0.212428 0.216621 
0.23175 0.265847 0.323283 0.346121 0.246619 0.185729 0.212292 0.212056 0.212947 
0.214158 0.216196 0.220977 0.235664 0.269399 0.323974 0.344084 0.24355 0.185243 
0.215817 0.215949 0.216777 0.217946 0.220143 0.225924 0.239863 0.273411 0.324739 
0.341661 0.240043 0.184706 0.219137 0.219607 0.220469 0.22182 0.224703 0.23099 
0.244797 0.27799 0.325521 0.338676 0.236018 0.184121 0.223478 0.224182 0.225116 
0.226629 0.229991 0.236652 0.250632 0.283224 0.326311 0.334936 0.231438 0.183487 
0.230952 0.231726 0.232613 0.234114 0.237506 0.243873 0.25752 0.289179 0.327014 
0.330128 0.226227 0.182812 0.24273 0.24334 0.243977 0.245372 0.247914 0.253434 
0.266155 0.295457 0.327178 0.323892 0.220284 0.182103 0.258276 0.258694 0.258975 
0.25993 0.261614 0.265838 0.276901 0.301167 0.326206 0.31578 0.213522 0.181386 
0.273155 0.27365 0.273852 0.274673 0.275991 0.279261 0.287545 0.305355 0.323718 
0.305366 0.206127 0.180688 0.281198 0.281669 0.281986 0.282882 0.284488 0.28766 
0.294242 0.307227 0.31985 0.291233 0.198363 0.18003 0.284161 0.284699 0.285186 
0.286113 0.287855 0.291001 0.296844 0.306858 0.314951 0.271598 0.191275 0.179448 
0.28356 0.283956 0.284519 0.285335 0.286908 0.289533 0.29429 0.305066 0.309516 
0.245297 0.185449 0.178994 0.278195 0.278413 0.278989 0.279738 0.281313 0.283778 
0.288748 0.299765 0.296829 0.216252 0.181453 0.178695 0.272938 0.27327 0.273633 
0.274457 0.275934 0.278136 0.282104 0.286828 0.267113 0.19387 0.179523 0.178571 
0.265956 0.266169 0.266652 0.267367 0.268813 0.27128 0.276053 0.27277 0.220018 
0.182611 0.17873 0.178568 0.251701 0.251721 0.251818 0.252024 0.252612 0.254368 
0.255305 0.234412 0.188976 0.179277 0.178543 0.178589 0.233577 0.233537 0.233484 
0.23364 0.233682 0.233434 0.22182 0.194053 0.180335 0.17857 0.178585 0.178588 
0.193197 0.193042 0.192793 0.192375 0.191473 0.189529 0.183598 0.1786 0.178378 
0.178594 0.178575 0.178562 0.18497 0.18497 0.187178 0.19368 0.197526 0.195353 
0.191961 0.204391 0.269936 0.341626 0.316759 0.207069 0.191812 0.191699 0.193218 
0.197488 0.198538 0.196854 0.193731 0.206354 0.270935 0.341329 0.314779 0.206178 
0.193024 0.193488 0.192795 0.193744 0.19636 0.197574 0.195438 0.208347 0.272002 
0.341142 0.312714 0.205339 0.192291 0.192794 0.191115 0.191696 0.195331 0.198138 
0.197167 0.210377 0.27305 0.340868 0.310656 0.204567 0.192528 0.192545 0.191069 
0.190729 0.194841 0.198679 0.198848 0.212544 0.274194 0.340625 0.308372 0.203718 
0.193292 0.192708 0.191698 0.191457 0.195833 0.1994 0.200658 0.214877 0.275488 
0.340309 0.305861 0.202829 0.195512 0.194503 0.193903 0.19427 0.197134 0.200668 
0.20253 0.217421 0.276982 0.339975 0.302999 0.201837 0.197789 0.196771 0.196847 
0.197571 0.1992 0.201889 0.204797 0.220163 0.278722 0.339532 0.299735 0.200747 
0.199606 0.198842 0.199129 0.19997 0.201408 0.203798 0.207438 0.223238 0.280752 
0.338985 0.295934 0.199524 0.200957 0.200625 0.201081 0.201885 0.203401 0.205849 