# vtk DataFile Version 5.1
vtk output
ASCII
DATASET STRUCTURED_GRID
DIMENSIONS 12 25 12
POINTS 3600 float
2.5 1.12391 -0.55 2.5 1.12541 -0.55 2.5 1.12821 -0.55 
2.5 1.13342 -0.55 2.5 1.14298 -0.55 2.5 1.16026 -0.55 
2.5 1.19046 -0.55 2.5 1.24033 -0.55 2.5 1.31549 -0.55 
2.5 1.41446 -0.55 2.5 1.52391 -0.55 2.5 1.62391 -0.55 
2.5 1.12391 -0.553 2.5 1.12541 -0.553 2.5 1.12821 -0.553 
2.5 1.13342 -0.553 2.5 1.14298 -0.553 2.5 1.16026 -0.553 
2.5 1.19046 -0.553 2.5 1.24033 -0.553 2.5 1.31549 -0.553 
2.5 1.41446 -0.553 2.5 1.52391 -0.553 2.5 1.62391 -0.553 
2.5 1.12391 -0.55609 2.5 1.12541 -0.55609 2.5 1.12821 -0.55609 
2.5 1.13342 -0.55609 2.5 1.14298 -0.55609 2.5 1.16026 -0.55609 
2.5 1.19046 -0.55609 2.5 1.24033 -0.55609 2.5 1.31549 -0.55609 
2.5 1.41446 -0.55609 2.5 1.52391 -0.55609 2.5 1.62391 -0.55609 
2.5 1.12391 -0.559363 2.5 1.12541 -0.559363 2.5 1.12821 -0.559363 
2.5 1.13342 -0.559363 2.5 1.14298 -0.559363 2.5 1.16026 -0.559363 
2.5 1.19046 -0.559363 2.5 1.24033 -0.559363 2.5 1.31549 -0.559363 
2.5 1.41446 -0.559363 2.5 1.52391 -0.559363 2.5 1.62391 -0.559363 
2.5 1.12391 -0.562918 2.5 1.12541 -0.562918 2.5 1.12821 -0.562918 
2.5 1.13342 -0.562918 2.5 1.14298 -0.562918 2.5 1.16026 -0.562918 
2.5 1.19046 -0.562918 2.5 1.24033 -0.562918 2.5 1.31549 -0.562918 
2.5 1.41446 -0.562918 2.5 1.52391 -0.562918 2.5 1.62391 -0.562918 
2.5 1.12391 -0.566862 2.5 1.12541 -0.566862 2.5 1.12821 -0.566862 
2.5 1.13342 -0.566862 2.5 1.14298 -0.566862 2.5 1.16026 -0.566862 
2.5 1.19046 -0.566862 2.5 1.24033 -0.566862 2.5 1.31549 -0.566862 
2.5 1.41446 -0.566862 2.5 1.52391 -0.566862 2.5 1.62391 -0.566862 
2.5 1.12391 -0.571312 2.5 1.12541 -0.571312 2.5 1.12821 -0.571312 
2.5 1.13342 -0.571312 2.5 1.14298 -0.571312 2.5 1.16026 -0.571312 
2.5 1.19046 -0.571312 2.5 1.24033 -0.571312 2.5 1.31549 -0.571312 
2.5 1.41446 -0.571312 2.5 1.52391 -0.571312 2.5 1.62391 -0.571312 
2.5 1.12391 -0.576403 2.5 1.12541 -0.576403 2.5 1.12821 -0.576403 
2.5 1.13342 -0.576403 2.5 1.14298 -0.576403 2.5 1.16026 -0.576403 
2.5 1.19046 -0.576403 2.5 1.24033 -0.576403 2.5 1.31549 -0.576403 
2.5 1.41446 -0.576403 2.5 1.52391 -0.576403 2.5 1.62391 -0.576403 
2.5 1.12391 -0.582287 2.5 1.12541 -0.582287 2.5 1.12821 -0.582287 
2.5 1.13342 -0.582287 2.5 1.14298 -0.582287 2.5 1.16026 -0.582287 
2.5 1.19046 -0.582287 2.5 1.24033 -0.582287 2.5 1.31549 -0.582287 
2.5 1.41446 -0.582287 2.5 1.52391 -0.582287 2.5 1.62391 -0.582287 
2.5 1.12391 -0.589143 2.5 1.12541 -0.589143 2.5 1.12821 -0.589143 
2.5 1.13342 -0.589143 2.5 1.14298 -0.589143 2.5 1.16026 -0.589143 
2.5 1.19046 -0.589143 2.5 1.24033 -0.589143 2.5 1.31549 -0.589143 
2.5 1.41446 -0.589143 2.5 1.52391 -0.589143 2.5 1.62391 -0.589143 
2.5 1.12391 -0.597175 2.5 1.12541 -0.597175 2.5 1.12821 -0.597175 
2.5 1.13342 -0.597175 2.5 1.14298 -0.597175 2.5 1.16026 -0.597175 
2.5 1.19046 -0.597175 2.5 1.24033 -0.597175 2.5 1.31549 -0.597175 
2.5 1.41446 -0.597175 2.5 1.52391 -0.597175 2.5 1.62391 -0.597175 
2.5 1.12391 -0.606626 2.5 1.12541 -0.606626 2.5 1.12821 -0.606626 
2.5 1.13342 -0.606626 2.5 1.14298 -0.606626 2.5 1.16026 -0.606626 
2.5 1.19046 -0.606626 2.5 1.24033 -0.606626 2.5 1.31549 -0.606626 
2.5 1.41446 -0.606626 2.5 1.52391 -0.606626 2.5 1.62391 -0.606626 
2.5 1.12391 -0.617779 2.5 1.12541 -0.617779 2.5 1.12821 -0.617779 
2.5 1.13342 -0.617779 2.5 1.14298 -0.617779 2.5 1.16026 -0.617779 
2.5 1.19046 -0.617779 2.5 1.24033 -0.617779 2.5 1.31549 -0.617779 
2.5 1.41446 -0.617779 2.5 1.52391 -0.617779 2.5 1.62391 -0.617779 
2.5 1.12391 -0.630969 2.5 1.12541 -0.630969 2.5 1.12821 -0.630969 
2.5 1.13342 -0.630969 2.5 1.14298 -0.630969 2.5 1.16026 -0.630969 
2.5 1.19046 -0.630969 2.5 1.24033 -0.630969 2.5 1.31549 -0.630969 
2.5 1.41446 -0.630969 2.5 1.52391 -0.630969 2.5 1.62391 -0.630969 
2.5 1.12391 -0.646595 2.5 1.12541 -0.646595 2.5 1.12821 -0.646595 
2.5 1.13342 -0.646595 2.5 1.14298 -0.646595 2.5 1.16026 -0.646595 
2.5 1.19046 -0.646595 2.5 1.24033 -0.646595 2.5 1.31549 -0.646595 
2.5 1.41446 -0.646595 2.5 1.52391 -0.646595 2.5 1.62391 -0.646595 
2.5 1.12391 -0.665124 2.5 1.12541 -0.665124 2.5 1.12821 -0.665124 
2.5 1.13342 -0.665124 2.5 1.14298 -0.665124 2.5 1.16026 -0.665124 
2.5 1.19046 -0.665124 2.5 1.24033 -0.665124 2.5 1.31549 -0.665124 
2.5 1.41446 -0.665124 2.5 1.52391 -0.665124 2.5 1.62391 -0.665124 
2.5 1.12391 -0.687115 2.5 1.12541 -0.687115 2.5 1.12821 -0.687115 
2.5 1.13342 -0.687115 2.5 1.14298 -0.687115 2.5 1.16026 -0.687115 
2.5 1.19046 -0.687115 2.5 1.24033 -0.687115 2.5 1.31549 -0.687115 
2.5 1.41446 -0.687115 2.5 1.52391 -0.687115 2.5 1.62391 -0.687115 
2.5 1.12391 -0.713228 2.5 1.12541 -0.713228 2.5 1.12821 -0.713228 
2.5 1.13342 -0.713228 2.5 1.14298 -0.713228 2.5 1.16026 -0.713228 
2.5 1.19046 -0.713228 2.5 1.24033 -0.713228 2.5 1.31549 -0.713228 
2.5 1.41446 -0.713228 2.5 1.52391 -0.713228 2.5 1.62391 -0.713228 
2.5 1.12391 -0.744248 2.5 1.12541 -0.744248 2.5 1.12821 -0.744248 
2.5 1.13342 -0.744248 2.5 1.14298 -0.744248 2.5 1.16026 -0.744248 
2.5 1.19046 -0.744248 2.5 1.24033 -0.744248 2.5 1.31549 -0.744248 
2.5 1.41446 -0.744248 2.5 1.52391 -0.744248 2.5 1.62391 -0.744248 
2.5 1.12391 -0.781109 2.5 1.12541 -0.781109 2.5 1.12821 -0.781109 
2.5 1.13342 -0.781109 2.5 1.14298 -0.781109 2.5 1.16026 -0.781109 
2.5 1.19046 -0.781109 2.5 1.24033 -0.781109 2.5 1.31549 -0.781109 
2.5 1.41446 -0.781109 2.5 1.52391 -0.781109 2.5 1.62391 -0.781109 
2.5 1.12391 -0.824918 2.5 1.12541 -0.824918 2.5 1.12821 -0.824918 
2.5 1.13342 -0.824918 2.5 1.14298 -0.824918 2.5 1.16026 -0.824918 
2.5 1.19046 -0.824918 2.5 1.24033 -0.824918 2.5 1.31549 -0.824918 
2.5 1.41446 -0.824918 2.5 1.52391 -0.824918 2.5 1.62391 -0.824918 
2.5 1.12391 -0.876993 2.5 1.12541 -0.876993 2.5 1.12821 -0.876993 
2.5 1.13342 -0.876993 2.5 1.14298 -0.876993 2.5 1.16026 -0.876993 
2.5 1.19046 -0.876993 2.5 1.24033 -0.876993 2.5 1.31549 -0.876993 
2.5 1.41446 -0.876993 2.5 1.52391 -0.876993 2.5 1.62391 -0.876993 
2.5 1.12391 -0.938899 2.5 1.12541 -0.938899 2.5 1.12821 -0.938899 
2.5 1.13342 -0.938899 2.5 1.14298 -0.938899 2.5 1.16026 -0.938899 
2.5 1.19046 -0.938899 2.5 1.24033 -0.938899 2.5 1.31549 -0.938899 
2.5 1.41446 -0.938899 2.5 1.52391 -0.938899 2.5 1.62391 -0.938899 
2.5 1.12391 -1.0125 2.5 1.12541 -1.0125 2.5 1.12821 -1.0125 
2.5 1.13342 -1.0125 2.5 1.14298 -1.0125 2.5 1.16026 -1.0125 
2.5 1.19046 -1.0125 2.5 1.24033 -1.0125 2.5 1.31549 -1.0125 
2.5 1.41446 -1.0125 2.5 1.52391 -1.0125 2.5 1.62391 -1.0125 
2.5 1.12391 -1.1 2.5 1.12541 -1.1 2.5 1.12821 -1.1 
2.5 1.13342 -1.1 2.5 1.14298 -1.1 2.5 1.16026 -1.1 
2.5 1.19046 -1.1 2.5 1.24033 -1.1 2.5 1.31549 -1.1 
2.5 1.41446 -1.1 2.5 1.52391 -1.1 2.5 1.62391 -1.1 
2.29601 1.12391 -0.55 2.29601 1.12541 -0.55 2.29601 1.12821 -0.55 
2.29601 1.13342 -0.55 2.29601 1.14298 -0.55 2.29601 1.16026 -0.55 
2.29601 1.19046 -0.55 2.29601 1.24033 -0.55 2.29601 1.31549 -0.55 
2.29601 1.41446 -0.55 2.29601 1.52391 -0.55 2.29601 1.62391 -0.55 
2.29601 1.12391 -0.553 2.29601 1.12541 -0.553 2.29601 1.12821 -0.553 
2.29601 1.13342 -0.553 2.29601 1.14298 -0.553 2.29601 1.16026 -0.553 
2.29601 1.19046 -0.553 2.29601 1.24033 -0.553 2.29601 1.31549 -0.553 
2.29601 1.41446 -0.553 2.29601 1.52391 -0.553 2.29601 1.62391 -0.553 
2.29601 1.12391 -0.55609 2.29601 1.12541 -0.55609 2.29601 1.12821 -0.55609 
2.29601 1.13342 -0.55609 2.29601 1.14298 -0.55609 2.29601 1.16026 -0.55609 
2.29601 1.19046 -0.55609 2.29601 1.24033 -0.55609 2.29601 1.31549 -0.55609 
2.29601 1.41446 -0.55609 2.29601 1.52391 -0.55609 2.29601 1.62391 -0.55609 
2.29601 1.12391 -0.559363 2.29601 1.12541 -0.559363 2.29601 1.12821 -0.559363 
2.29601 1.13342 -0.559363 2.29601 1.14298 -0.559363 2.29601 1.16026 -0.559363 
2.29601 1.19046 -0.559363 2.29601 1.24033 -0.559363 2.29601 1.31549 -0.559363 
2.29601 1.41446 -0.559363 2.29601 1.52391 -0.559363 2.29601 1.62391 -0.559363 
2.29601 1.12391 -0.562918 2.29601 1.12541 -0.562918 2.29601 1.12821 -0.562918 
2.29601 1.13342 -0.562918 2.29601 1.14298 -0.562918 2.29601 1.16026 -0.562918 
2.29601 1.19046 -0.562918 2.29601 1.24033 -0.562918 2.29601 1.31549 -0.562918 
2.29601 1.41446 -0.562918 2.29601 1.52391 -0.562918 2.29601 1.62391 -0.562918 
2.29601 1.12391 -0.566862 2.29601 1.12541 -0.566862 2.29601 1.12821 -0.566862 
2.29601 1.13342 -0.566862 2.29601 1.14298 -0.566862 2.29601 1.16026 -0.566862 
2.29601 1.19046 -0.566862 2.29601 1.24033 -0.566862 2.29601 1.31549 -0.566862 
2.29601 1.41446 -0.566862 2.29601 1.52391 -0.566862 2.29601 1.62391 -0.566862 
2.29601 1.12391 -0.571312 2.29601 1.12541 -0.571312 2.29601 1.12821 -0.571312 
2.29601 1.13342 -0.571312 2.29601 1.14298 -0.571312 2.29601 1.16026 -0.571312 
2.29601 1.19046 -0.571312 2.29601 1.24033 -0.571312 2.29601 1.31549 -0.571312 
2.29601 1.41446 -0.571312 2.29601 1.52391 -0.571312 2.29601 1.62391 -0.571312 
2.29601 1.12391 -0.576403 2.29601 1.12541 -0.576403 2.29601 1.12821 -0.576403 
2.29601 1.13342 -0.576403 2.29601 1.14298 -0.576403 2.29601 1.16026 -0.576403 
2.29601 1.19046 -0.576403 2.29601 1.24033 -0.576403 2.29601 1.31549 -0.576403 
2.29601 1.41446 -0.576403 2.29601 1.52391 -0.576403 2.29601 1.62391 -0.576403 
2.29601 1.12391 -0.582287 2.29601 1.12541 -0.582287 2.29601 1.12821 -0.582287 
2.29601 1.13342 -0.582287 2.29601 1.14298 -0.582287 2.29601 1.16026 -0.582287 
2.29601 1.19046 -0.582287 2.29601 1.24033 -0.582287 2.29601 1.31549 -0.582287 
2.29601 1.41446 -0.582287 2.29601 1.52391 -0.582287 2.29601 1.62391 -0.582287 
2.29601 1.12391 -0.589143 2.29601 1.12541 -0.589143 2.29601 1.12821 -0.589143 
2.29601 1.13342 -0.589143 2.29601 1.14298 -0.589143 2.29601 1.16026 -0.589143 
2.29601 1.19046 -0.589143 2.29601 1.24033 -0.589143 2.29601 1.31549 -0.589143 
2.29601 1.41446 -0.589143 2.29601 1.52391 -0.589143 2.29601 1.62391 -0.589143 
2.29601 1.12391 -0.597175 2.29601 1.12541 -0.597175 2.29601 1.12821 -0.597175 
2.29601 1.13342 -0.597175 2.29601 1.14298 -0.597175 2.29601 1.16026 -0.597175 
2.29601 1.19046 -0.597175 2.29601 1.24033 -0.597175 2.29601 1.31549 -0.597175 
[...]
POINT_DATA 3600
FIELD FieldData 5
pressure 1 3600 float
0.178573 0.149448 0.150497 0.151224 0.152871 0.155466 0.159262 0.165323 0.174016 
0.182536 0.192632 0.217483 0.136961 0.143186 0.146404 0.149737 0.152305 0.155017 
0.158936 0.165138 0.173938 0.182592 0.192922 0.217826 0.142468 0.143837 0.146505 
0.149131 0.151791 0.154563 0.158613 0.164959 0.173887 0.182713 0.193236 0.218274 
0.144011 0.145423 0.146804 0.148796 0.151302 0.154109 0.158288 0.164771 0.173802 
0.182812 0.193536 0.218684 0.145238 0.146005 0.146894 0.148528 0.150825 0.153686 
0.157973 0.164569 0.173724 0.182918 0.193875 0.219168 0.145589 0.14626 0.146855 
0.148225 0.15032 0.1533 0.157655 0.164356 0.173626 0.183042 0.194229 0.219685 
0.145596 0.146174 0.146671 0.147888 0.149862 0.152892 0.157337 0.164119 0.17352 
0.183168 0.194636 0.220292 0.145424 0.145917 0.146382 0.147493 0.149284 0.152556 
0.15698 0.163859 0.173397 0.183318 0.195082 0.220989 0.145214 0.145558 0.146029 
0.147074 0.148737 0.15214 0.156605 0.163555 0.173254 0.183494 0.1956 0.221794 
0.145064 0.14527 0.145752 0.146703 0.148295 0.151668 0.15616 0.163212 0.17311 
0.183694 0.196199 0.222779 0.144937 0.145082 0.145576 0.146387 0.148023 0.151052 
0.155648 0.162838 0.172943 0.18395 0.1969 0.223928 0.144696 0.14489 0.145342 
0.146102 0.147676 0.150483 0.155108 0.162414 0.172801 0.184243 0.197724 0.225283 
0.144323 0.144584 0.145007 0.145724 0.147229 0.149879 0.154488 0.162001 0.172643 
0.184627 0.198707 0.226824 0.143881 0.144153 0.144548 0.14527 0.146719 0.149267 
0.153906 0.161557 0.172547 0.185094 0.199872 0.228566 0.143369 0.143632 0.144009 
0.14476 0.146117 0.148713 0.1533 0.161181 0.172505 0.185706 0.201273 0.230379 
0.14282 0.143097 0.143489 0.144191 0.145607 0.148139 0.152825 0.160826 0.172549 
0.186468 0.202901 0.23232 0.142294 0.142573 0.142953 0.143715 0.145065 0.147733 
0.152388 0.160635 0.172533 0.187315 0.204965 0.234388 0.141896 0.142163 0.142581 
0.143309 0.144747 0.147377 0.152187 0.160585 0.172633 0.188266 0.207346 0.236591 
0.141839 0.142086 0.142503 0.143274 0.144702 0.147432 0.152196 0.160623 0.17282 
0.189451 0.211062 0.238525 0.142363 0.142604 0.143023 0.143756 0.145184 0.147778 
0.152495 0.160704 0.173445 0.191191 0.216985 0.240118 0.14315 0.143377 0.143781 
0.144521 0.145897 0.148479 0.153114 0.161306 0.174466 0.193399 0.221844 0.239806 
0.146376 0.146596 0.146962 0.147606 0.14886 0.151149 0.155479 0.163151 0.175802 
0.195662 0.224925 0.237524 0.152301 0.152463 0.152748 0.153269 0.154256 0.156181 
0.159813 0.166558 0.177802 0.200963 0.224896 0.231221 0.160246 0.160371 0.160577 
0.160932 0.161641 0.162987 0.165708 0.170732 0.181173 0.201669 0.219097 0.221886 
0.175113 0.175187 0.175284 0.175449 0.175768 0.176405 0.177654 0.180351 0.186143 
0.193224 0.19787 0.196026 0.149448 0.149448 0.150497 0.151224 0.152871 0.155466 
0.159262 0.165323 0.174016 0.182536 0.192632 0.217483 0.136961 0.143186 0.146404 
0.149737 0.152305 0.155017 0.158936 0.165138 0.173938 0.182592 0.192922 0.217826 
0.142468 0.143837 0.146505 0.149131 0.151791 0.154563 0.158613 0.164959 0.173887 
0.182713 0.193236 0.218274 0.144011 0.145423 0.146804 0.148796 0.151302 0.154109 
0.158288 0.164771 0.173802 0.182812 0.193536 0.218684 0.145238 0.146005 0.146894 
0.148528 0.150825 0.153686 0.157973 0.164569 0.173724 0.182918 0.193875 0.219168 
0.145589 0.14626 0.146855 0.148225 0.15032 0.1533 0.157655 0.164356 0.173626 
0.183042 0.194229 0.219685 0.145596 0.146174 0.146671 0.147888 0.149862 0.152892 
0.157337 0.164119 0.17352 0.183168 0.194636 0.220292 0.145424 0.145917 0.146382 
0.147493 0.149284 0.152556 0.15698 0.163859 0.173397 0.183318 0.195082 0.220989 
0.145214 0.145558 0.146029 0.147074 0.148737 0.15214 0.156605 0.163555 0.173254 
0.183494 0.1956 0.221794 0.145064 0.14527 0.145752 0.146703 0.148295 0.151668 
0.15616 0.163212 0.17311 0.183694 0.196199 0.222779 0.144937 0.145082 0.145576 
0.146387 0.148023 0.151052 0.155648 0.162838 0.172943 0.18395 0.1969 0.223928 
0.144696 0.14489 0.145342 0.146102 0.147676 0.150483 0.155108 0.162414 0.172801 
0.184243 0.197724 0.225283 0.144323 0.144584 0.145007 0.145724 0.147229 0.149879 
0.154488 0.162001 0.172643 0.184627 0.198707 0.226824 0.143881 0.144153 0.144548 
0.14527 0.146719 0.149267 0.153906 0.161557 0.172547 0.185094 0.199872 0.228566 
0.143369 0.143632 0.144009 0.14476 0.146117 0.148713 0.1533 0.161181 0.172505 
0.185706 0.201273 0.230379 0.14282 0.143097 0.143489 0.144191 0.145607 0.148139 
0.152825 0.160826 0.172549 0.186468 0.202901 0.23232 0.142294 0.142573 0.142953 
0.143715 0.145065 0.147733 0.152388 0.160635 0.172533 0.187315 0.204965 0.234388 
0.141896 0.142163 0.142581 0.143309 0.144747 0.147377 0.152187 0.160585 0.172633 
0.188266 0.207346 0.236591 0.141839 0.142086 0.142503 0.143274 0.144702 0.147432 
0.152196 0.160623 0.17282 0.189451 0.211062 0.238525 0.142363 0.142604 0.143023 
0.143756 0.145184 0.147778 0.152495 0.160704 0.173445 0.191191 0.216985 0.240118 
0.14315 0.143377 0.143781 0.144521 0.145897 0.148479 0.153114 0.161306 0.174466 
0.193399 0.221844 0.239806 0.146376 0.146596 0.146962 0.147606 0.14886 0.151149 
0.155479 0.163151 0.175802 0.195662 0.224925 0.237524 0.152301 0.152463 0.152748 
0.153269 0.154256 0.156181 0.159813 0.166558 0.177802 0.200963 0.224896 0.231221 
0.160246 0.160371 0.160577 0.160932 0.161641 0.162987 0.165708 0.170732 0.181173 
0.201669 0.219097 0.221886 0.175113 0.175187 0.175284 0.175449 0.175768 0.176405 
0.177654 0.180351 0.186143 0.193224 0.19787 0.196026 0.170728 0.170728 0.170479 
0.171033 0.171799 0.17386 0.177966 0.181986 0.191192 0.215886 0.247467 0.285104 
0.167122 0.16841 0.169001 0.170298 0.17131 0.173479 0.177993 0.182259 0.191538 
0.216346 0.24797 0.285274 0.167391 0.168284 0.168761 0.169725 0.170463 0.173094 
0.177946 0.18248 0.191899 0.216841 0.248628 0.285317 0.166193 0.166877 0.167422 
0.168474 0.169298 0.172685 0.177896 0.182737 0.192296 0.217335 0.249257 0.28543 
0.165424 0.165947 0.166306 0.167179 0.16829 0.172309 0.177806 0.182979 0.192724 
0.217877 0.24997 0.285511 0.164642 0.164945 0.165286 0.165942 0.16746 0.171983 
0.17772 0.183291 0.19319 0.218442 0.250736 0.285627 0.164179 0.164253 0.164665 
0.165308 0.166947 0.171946 0.177712 0.183576 0.193725 0.219083 0.251591 0.285733 
0.163954 0.163805 0.164329 0.165079 0.167268 0.171934 0.177736 0.183953 0.194298 
0.219807 0.252555 0.285843 0.16409 0.163801 0.164518 0.165399 0.168042 0.172111 
0.177784 0.184414 0.194987 0.220609 0.253673 0.285967 0.164202 0.16397 0.164813 
0.165814 0.168681 0.172295 0.177949 0.184976 0.195767 0.221544 0.254947 0.286041 
0.164234 0.164279 0.165108 0.166229 0.169022 0.172506 0.178234 0.185645 0.19671 
0.222574 0.256442 0.286122 0.164324 0.164595 0.165399 0.166537 0.169234 0.172767 
0.178578 0.186498 0.197807 0.22378 0.258153 0.286166 0.164577 0.164945 0.165718 
0.166899 0.169481 0.173108 0.179099 0.187495 0.199135 0.225116 0.260199 0.286185 
0.165083 0.16545 0.166202 0.167454 0.169871 0.1737 0.179837 0.188809 0.200714 
0.226727 0.262549 0.286093 0.165948 0.166338 0.167083 0.168309 0.170735 0.174627 
0.180989 0.190435 0.202607 0.228609 0.265412 0.285902 0.167299 0.167705 0.168389 
0.169709 0.171998 0.176088 0.182573 0.192588 0.205046 0.23107 0.268762 0.285348 
0.169176 0.16956 0.170293 0.17157 0.173973 0.178108 0.184834 0.195181 0.208358 
0.234096 0.272872 0.284269 0.171594 0.171902 0.172636 0.173961 0.176349 0.180622 
0.187494 0.198203 0.212901 0.238792 0.277023 0.281972 0.174652 0.174933 0.175737 
0.176996 0.179457 0.183716 0.190799 0.202181 0.21849 0.244279 0.281379 0.279416 
0.179979 0.180231 0.181011 0.182215 0.184626 0.188827 0.196132 0.20809 0.225388 
0.252065 0.282762 0.2763 0.189107 0.189372 0.19006 0.191167 0.193388 0.197232 
0.204154 0.215629 0.233401 0.260359 0.283321 0.270267 0.200027 0.200329 0.200933 
0.202022 0.204075 0.207732 0.214465 0.224864 0.242975 0.267819 0.278414 0.256728 
0.208061 0.208415 0.208975 0.209992 0.211959 0.215404 0.222055 0.231912 0.249659 
0.265503 0.268385 0.236728 0.20724 0.207538 0.208046 0.208923 0.210591 0.213733 
0.219166 0.229328 0.245248 0.255359 0.243094 0.21079 0.194405 0.194537 0.194784 
0.195186 0.195969 0.197328 0.199803 0.203765 0.208772 0.206878 0.195378 0.183574 
0.179841 0.179841 0.180234 0.182505 0.185459 0.187193 0.18827 0.19045 0.19257 
0.230017 0.301658 0.31268 0.181864 0.182562 0.182661 0.184194 0.185658 0.187405 
0.188565 0.190927 0.193433 0.230682 0.301974 0.311618 0.182872 0.18347 0.18337 
0.183794 0.184497 0.187094 0.188947 0.191538 0.194339 0.231508 0.302305 0.310567 
0.182791 0.183296 0.183127 0.183028 0.183638 0.186778 0.189196 0.192137 0.195329 
0.232331 0.302617 0.309558 0.182697 0.182948 0.182824 0.18239 0.183113 0.18659 
0.189483 0.192804 0.19638 0.233227 0.302975 0.308431 0.182676 0.182543 0.182493 
0.181898 0.183005 0.186749 0.189851 0.193448 0.197559 0.234194 0.30335 0.307202 
0.182867 0.182571 0.182673 0.181985 0.183628 0.187245 0.190371 0.194205 0.198859 
0.235302 0.303772 0.305799 0.1835 0.182922 0.183278 0.182807 0.184859 0.187995 
0.191064 0.195015 0.200357 0.236554 0.304246 0.304203 0.184131 0.183547 0.184074 
0.184054 0.186357 0.188908 0.191926 0.196076 0.202019 0.238031 0.304784 0.302331 
0.184758 0.184394 0.184988 0.185316 0.187665 0.189929 0.192951 0.197322 0.203961 
0.239738 0.305422 0.300162 0.185331 0.185321 0.185916 0.186486 0.188724 0.19095 
0.194144 0.198868 0.206166 0.241788 0.306139 0.297614 0.186038 0.186252 0.186845 
0.187565 0.189665 0.191986 0.195529 0.200692 0.208756 0.244184 0.306976 0.294632 
0.186794 0.187116 0.187719 0.1886 0.19053 0.193142 0.197105 0.202818 0.211774 
0.247049 0.307805 0.291091 0.187769 0.188175 0.18879 0.189737 0.191664 0.194503 
0.198959 0.205338 0.215378 0.250446 0.308564 0.286934 0.18923 0.189667 0.190259 
0.191332 0.193169 0.196314 0.201129 0.208181 0.219694 0.254508 0.308974 0.281925 
0.191319 0.191768 0.192385 0.193475 0.195424 0.198668 0.203885 0.211557 0.224888 
0.259555 0.308484 0.275908 0.194789 0.195129 0.195737 0.196867 0.198816 0.202209 
0.207635 0.216052 0.231298 0.265609 0.306767 0.267932 0.20028 0.200529 0.201154 
0.20224 0.204268 0.20766 0.213402 0.222438 0.239233 0.272626 0.302456 0.25817 
0.210302 0.210572 0.211113 0.212112 0.21397 0.217175 0.22282 0.231901 0.249374 
0.27936 0.296292 0.244648 0.223506 0.22389 0.224379 0.225338 0.227071 0.230161 
0.235643 0.244123 0.261096 0.283729 0.286338 0.228067 0.236158 0.236542 0.237074 
0.238048 0.239879 0.243078 0.249024 0.25773 0.27279 0.285411 0.270773 0.209134 
0.243044 0.243425 0.243939 0.244897 0.246651 0.24999 0.255829 0.265787 0.280894 
0.285342 0.245427 0.194572 0.240828 0.241198 0.241691 0.2426 0.244261 0.247444 
0.252897 0.264714 0.2815 0.267135 0.211689 0.1846 0.230248 0.230499 0.231065 
0.231943 0.233734 0.236906 0.243242 0.254712 0.259775 0.227827 0.19092 0.180566 
0.198971 0.199028 0.199217 0.199509 0.200099 0.201073 0.202969 0.204842 0.199133 
0.185501 0.179507 0.178671 0.180588 0.180588 0.181837 0.186735 0.191431 0.193265 
0.194876 0.207493 0.228091 0.289181 0.343335 0.269416 0.186314 0.1868 0.186872 
0.189603 0.191688 0.193778 0.195467 0.20827 0.229128 0.289586 0.342476 0.267872 
0.187547 0.188131 0.186871 0.187907 0.190085 0.193924 0.196281 0.209235 0.230253 
0.290149 0.341581 0.266315 0.18766 0.188216 0.18753 0.18653 0.188942 0.193894 
0.196951 0.21017 0.231385 0.290756 0.340687 0.264775 0.187746 0.188009 0.187172 
0.185674 0.188501 0.193978 0.197661 0.211194 0.232609 0.291435 0.339699 0.263077 
0.188396 0.188153 0.187487 0.185891 0.189055 0.194432 0.198422 0.212257 0.233949 
0.292194 0.33863 0.2612 0.189456 0.188879 0.188547 0.18715 0.190793 0.19522 
0.19947 0.213357 0.235488 0.293042 0.337422 0.259065 0.191107 0.19033 0.190376 
0.18969 0.193388 0.196469 0.200758 0.214586 0.237223 0.294045 0.336026 0.256595 
0.192823 0.192175 0.192471 0.192383 0.195637 0.198134 0.202417 0.215967 0.239226 
0.295197 0.334388 0.253712 0.19462 0.194325 0.194743 0.19513 0.197763 0.200085 
0.204479 0.217628 0.241547 0.296597 0.332391 0.250311 0.196535 0.196571 0.197025 
0.197628 0.199854 0.202269 0.206994 0.219601 0.244298 0.298255 0.329939 0.246294 
0.198893 0.199128 0.19959 0.200398 0.202286 0.205023 0.21 0.222033 0.247548 
0.300315 0.3268 0.241536 0.201456 0.201871 0.202356 0.20329 0.205119 0.208178 
0.213513 0.225069 0.251501 0.302753 0.322875 0.235951 0.204242 0.204814 0.205316 
0.206408 0.208217 0.211775 0.21736 0.228879 0.256332 0.305599 0.317844 0.229467 
0.207107 0.207697 0.208281 0.209497 0.211557 0.215422 0.221772 0.233625 0.262162 
0.308521 0.311584 0.222107 0.211321 0.211908 0.212539 0.213832 0.215997 0.220183 
0.227196 0.239786 0.268976 0.311077 0.303541 0.214119 0.218758 0.219171 0.219794 
0.220931 0.223099 0.227027 0.234594 0.247412 0.276909 0.31257 0.292973 0.20609 
0.230645 0.23104 0.231538 0.232498 0.23437 0.237799 0.245009 0.25743 0.285566 
0.312922 0.278146 0.199072 0.245302 0.245664 0.246083 0.246966 0.248643 0.251702 
0.258321 0.268905 0.293282 0.311793 0.258795 0.192518 0.258725 0.259175 0.259535 
0.260412 0.261918 0.264768 0.269952 0.278593 0.298209 0.306892 0.23485 0.186713 
0.263377 0.263755 0.264194 0.265014 0.266517 0.26941 0.274451 0.283703 0.299392 
0.28664 0.208558 0.1822 0.261216 0.261524 0.262081 0.262941 0.264562 0.267357 
0.271766 0.282512 0.292052 0.252013 0.191333 0.179955 0.252012 0.252193 0.252801 
0.253653 0.255312 0.257904 0.261635 0.269877 0.261726 0.207651 0.182069 0.178906 
0.236995 0.237275 0.23766 0.238384 0.239555 0.241442 0.245668 0.244981 0.218103 
0.186853 0.17945 0.1786 0.198545 0.198564 0.198588 0.198685 0.198785 0.198895 
0.198227 0.193687 0.182632 0.178764 0.178478 0.178518 0.184248 0.184248 0.186319 
0.192589 0.196338 0.194392 0.191631 0.203498 0.26897 0.34129 0.316637 0.207237 
0.190687 0.19076 0.192128 0.196441 0.197378 0.195763 0.193253 0.20539 0.270021 
0.34099 0.314635 0.206349 0.191777 0.19232 0.191606 0.192547 0.195184 0.196442 
0.194945 0.207325 0.27111 0.340813 0.312571 0.205506 0.191051 0.19158 0.189989 
0.190516 0.194175 0.196894 0.196601 0.209296 0.272205 0.340556 0.310517 0.204728 
0.191398 0.191386 0.189922 0.189577 0.193698 0.197433 0.198265 0.211433 0.273412 
0.340333 0.308242 0.203875 0.192197 0.191647 0.190603 0.190329 0.194741 0.198165 
0.199995 0.213765 0.274777 0.340038 0.305748 0.202982 0.19447 0.193487 0.192792 
0.193147 0.196026 0.199546 0.201837 0.216323 0.276347 0.339722 0.302911 0.201986 
0.19672 0.195749 0.195804 0.196531 0.198116 0.200855 0.204084 0.219128 0.27816 
0.339284 0.299682 0.200892 0.198676 0.197947 0.198226 0.199064 0.200376 0.202893 
0.206697 0.222281 0.280254 0.338721 0.295933 0.199666 0.200154 0.199815 0.200249 
0.201033 0.202476 0.205021 0.209855 0.225827 0.28269 0.337915 0.291588 0.198298 
0.201719 0.201753 0.202276 0.203116 0.204756 0.207715 0.213464 0.229979 0.285556 
0.336786 0.286495 0.196767 0.203836 0.204168 0.204751 0.2057 0.207659 0.211153 
0.217721 0.234894 0.288923 0.335212 0.280551 0.195074 0.207081 0.207647 0.208273 
0.209369 0.211554 0.215618 0.223248 0.241073 0.292861 0.333041 0.273569 0.193224 
0.213111 0.213714 0.214342 0.215501 0.217938 0.22221 0.230707 0.249006 0.297332 
0.330255 0.265389 0.191227 0.223484 0.223972 0.224538 0.225686 0.227877 0.232262 
0.240981 0.259384 0.302238 0.326755 0.255517 0.189054 0.23889 0.239399 0.239772 
0.240698 0.242419 0.246079 0.254516 0.271465 0.307168 0.322068 0.243867 0.18673 
0.256625 0.257085 0.257403 0.258178 0.25964 0.262664 0.269996 0.283936 0.310999 
0.315278 0.23033 0.184345 0.269348 0.269854 0.270239 0.271046 0.27256 0.275491 
0.282188 0.293754 0.312426 0.305103 0.21597 0.182234 0.273389 0.273798 0.274239 
0.27504 0.276604 0.279542 0.285659 0.296749 0.310632 0.289448 0.202438 0.180698 
0.272726 0.273033 0.273462 0.274272 0.275739 0.278425 0.283491 0.294389 0.305039 
0.264362 0.191226 0.179625 0.272114 0.2724 0.272822 0.273552 0.274965 0.277256 
0.281077 0.289271 0.29175 0.227038 0.18381 0.178951 0.266619 0.266827 0.267422 
0.268253 0.2699 0.272384 0.276328 0.282132 0.263514 0.197257 0.180082 0.178607 
0.25339 0.25354 0.25409 0.254894 0.2564 0.258805 0.262751 0.258288 0.214459 
0.18306 0.178863 0.178515 0.237232 0.237434 0.2377 0.238303 0.239267 0.240667 
0.23831 0.220355 0.18775 0.179444 0.178521 0.178547 0.196521 0.196464 0.196362 
0.196233 0.195915 0.195091 0.191404 0.182714 0.17857 0.17845 0.178576 0.178596 
0.18435 0.18435 0.189941 0.197371 0.199043 0.196637 0.209083 0.250233 0.320381 
0.354718 0.261605 0.188482 0.194005 0.192692 0.196752 0.201681 0.201587 0.199572 
0.212338 0.251986 0.320659 0.353694 0.259733 0.188078 0.194776 0.19528 0.194662 
0.197509 0.201499 0.201876 0.215487 0.253898 0.320913 0.35265 0.257926 0.18771 
0.193564 0.193952 0.192786 0.195755 0.201382 0.20414 0.218725 0.255829 0.321091 
0.35154 0.256154 0.187381 0.195022 0.195054 0.193996 0.195782 0.202629 0.206363 
0.221917 0.257949 0.321364 0.35035 0.254201 0.187028 0.197804 0.197195 0.19652 
0.199299 0.204936 0.209204 0.225081 0.260326 0.321699 0.349047 0.252077 0.186653 
0.203378 0.202583 0.202571 0.204687 0.20826 0.212443 0.228379 0.262929 0.322168 
0.347568 0.249679 0.186246 0.207974 0.207247 0.207863 0.209192 0.21211 0.216428 
0.231863 0.265913 0.322789 0.345883 0.246968 0.185798 0.212031 0.21166 0.212443 
0.213617 0.21568 0.220442 0.235655 0.269359 0.323592 0.343895 0.243872 0.185307 
0.215579 0.215581 0.216356 0.217441 0.219493 0.225021 0.239728 0.273352 0.324561 
0.341528 0.240329 0.184765 0.218961 0.219337 0.220115 0.22137 0.223948 0.22992 
0.244571 0.277937 0.325592 0.338602 0.23627 0.184172 0.223395 0.224069 0.224901 
0.226313 0.229293 0.235592 0.250255 0.283233 0.326586 0.334897 0.231657 0.183531 
0.231054 0.231844 0.23261 0.234032 0.236972 0.243006 0.257189 0.289156 0.327264 
0.330073 0.226439 0.182849 0.242741 0.243435 0.243995 0.245358 0.247604 0.253011 
0.265967 0.295398 0.327208 0.323818 0.220513 0.182134 0.258384 0.258858 0.259107 
0.260013 0.261615 0.265817 0.276739 0.300905 0.325883 0.315695 0.213788 0.181413 
0.273237 0.27377 0.274006 0.274836 0.276214 0.279565 0.287458 0.304994 0.323261 
0.305323 0.206397 0.180711 0.281546 0.282048 0.282418 0.283333 0.285004 0.288193 
0.294477 0.307099 0.319738 0.291377 0.198609 0.180049 0.284329 0.284835 0.285325 
0.286242 0.287954 0.291007 0.296734 0.307033 0.315397 0.272082 0.191454 0.179461 
0.283325 0.283663 0.284196 0.284962 0.286492 0.289066 0.293945 0.304791 0.309482 
0.246072 0.185567 0.179 0.277961 0.278138 0.278681 0.279413 0.280905 0.283376 
0.288266 0.299142 0.296892 0.216754 0.181499 0.178698 0.27347 0.273799 0.274225 
0.274985 0.2765 0.278609 0.282373 0.287723 0.267973 0.194048 0.179536 0.178571 
0.266194 0.266443 0.266911 0.267653 0.26914 0.271682 0.276295 0.27297 0.220333 
0.182655 0.178734 0.178568 0.251297 0.251395 0.251468 0.251734 0.252328 0.254183 
0.255318 0.234074 0.189006 0.179283 0.178544 0.178589 0.233657 0.233617 0.233546 
0.233681 0.233686 0.233414 0.221722 0.194051 0.18034 0.178571 0.178585 0.178588 
0.193234 0.193075 0.192825 0.192404 0.191495 0.18954 0.183598 0.178606 0.178378 
0.178594 0.178575 0.178563 0.186918 0.186918 0.19125 0.196038 0.192481 0.188124 
0.212524 0.295611 0.348633 0.344444 0.229696 0.182743 0.19509 0.1937 0.200228 
0.203063 0.197244 0.192136 0.215697 0.296197 0.348177 0.343036 0.228074 0.18256 
0.192992 0.1937 0.195948 0.198264 0.199251 0.195759 0.219141 0.297265 0.347693 
0.341519 0.226561 0.182392 0.192 0.192902 0.193874 0.197008 0.200452 0.199768 
0.222906 0.298374 0.347029 0.339947 0.225103 0.182251 0.193829 0.194106 0.194304 
0.198722 0.202756 0.203764 0.227196 0.299744 0.346322 0.338188 0.223544 0.182095 
0.198482 0.198003 0.199132 0.201477 0.205721 0.208372 0.232017 0.301271 0.345492 
0.336217 0.221881 0.181937 0.204597 0.204017 0.205284 0.20707 0.210228 0.213817 
0.237434 0.30307 0.344563 0.333933 0.220053 0.181762 0.210394 0.209976 0.211348 
0.212797 0.215669 0.220109 0.243715 0.305124 0.343502 0.331259 0.218033 0.181574 
0.216466 0.216345 0.217869 0.219233 0.222557 0.22756 0.250884 0.307518 0.342309 
0.328083 0.215771 0.181366 0.223972 0.224335 0.225593 0.227168 0.230783 0.236485 