# vtk DataFile Version 5.1
vtk output
ASCII
DATASET POLYDATA
POINTS 1600 float
1.15166 0.698336 0.5 1.14568 0.704316 0.5 1.14079 0.709211 0.5 
1.1368 0.713197 0.5 1.17815 0.671848 0.5 1.16768 0.682316 0.5 
1.15525 0.694752 0.5 1.15893 0.691074 0.5 1.17888 0.671119 0.5 
1.19054 0.659457 0.5 1.17877 0.672227 0.499003 1.22171 0.628286 0.5 
1.2015 0.648501 0.5 1.20503 0.644973 0.5 1.22312 0.626884 0.5 
1.24062 0.60938 0.5 1.22292 0.628979 0.498101 1.2438 0.6062 0.5 
1.26163 0.588374 0.5 1.26363 0.586367 0.5 1.26337 0.589301 0.497329 
1.2827 0.567304 0.5 1.28445 0.565547 0.5 1.30107 0.548934 0.5 
1.30865 0.541349 0.5 1.31882 0.531177 0.5 1.3336 0.516396 0.5 
1.33605 0.513948 0.5 1.35281 0.497187 0.5 1.3586 0.491404 0.5 
1.3692 0.480796 0.5 1.38287 0.467129 0.5 1.38527 0.464729 0.5 
1.38494 0.46793 0.49713 1.40108 0.448918 0.5 1.40573 0.444266 0.5 
1.41669 0.43331 0.5 1.42663 0.423365 0.5 1.43217 0.417833 0.5 
1.44522 0.404777 0.5 1.44755 0.402452 0.5 1.46136 0.388641 0.5 
1.44716 0.405419 0.497421 1.46289 0.387111 0.5 1.47508 0.374924 0.5 
1.46262 0.389047 0.498333 1.47824 0.371764 0.5 1.48653 0.363468 0.5 
1.50365 0.346354 0.5 1.49363 0.35637 0.5 1.49597 0.354033 0.5 
1.52436 0.325635 0.5 1.52189 0.328113 0.5 1.51875 0.331248 0.5 
1.5148 0.335199 0.5 1.50909 0.340905 0.5 1.50984 0.34016 0.5 
1.5246 0.325708 0.499692 1.52406 0.32878 0.49716 1.15351 0.699488 0.497 
1.14753 0.705469 0.497 1.14264 0.710363 0.497 1.13865 0.714348 0.497 
1.16954 0.683461 0.497 1.15491 0.698093 0.497 1.16078 0.692223 0.497 
1.15469 0.700222 0.495088 1.19241 0.660586 0.497 1.17855 0.674448 0.497 
1.18001 0.672987 0.497 1.20118 0.651821 0.497 1.20691 0.646087 0.497 
1.24255 0.610451 0.497 1.22281 0.630193 0.497 1.22362 0.629381 0.497 
1.2435 0.609501 0.497 1.24337 0.610907 0.495723 1.26334 0.589662 0.497 
1.26359 0.589415 0.497 1.2824 0.570595 0.497 1.28645 0.56655 0.497 
1.30077 0.552227 0.497 1.31069 0.542312 0.497 1.31853 0.534473 0.497 
1.33568 0.517318 0.497 1.33575 0.517252 0.497 1.33574 0.517343 0.496917 
1.3525 0.500501 0.497 1.36072 0.492279 0.497 1.36887 0.484126 0.497 
1.38492 0.468075 0.497 1.38503 0.467966 0.497 1.40071 0.452288 0.497 
1.40794 0.445065 0.497 1.4163 0.436703 0.497 1.42886 0.424135 0.497 
1.43175 0.421253 0.497 1.43129 0.424972 0.493738 1.4471 0.405903 0.497 
1.44748 0.405523 0.497 1.47736 0.375642 0.497 1.4624 0.390596 0.497 
1.46363 0.38937 0.497 1.47772 0.375283 0.497 1.48882 0.364177 0.497 
1.47765 0.375734 0.496616 1.50594 0.347058 0.497 1.49307 0.359933 0.497 
1.49826 0.354738 0.497 1.52105 0.331951 0.497 1.5171 0.335901 0.497 
1.50849 0.344509 0.497 1.51214 0.340863 0.497 1.50796 0.347676 0.494364 
1.52666 0.326342 0.497 1.52403 0.328975 0.497 1.52418 0.328818 0.497 
1.52337 0.332663 0.493967 1.14966 0.706795 0.493548 1.14476 0.711689 0.493548 
1.14078 0.715674 0.493548 1.17167 0.684779 0.493548 1.16291 0.693546 0.493548 
1.15452 0.701934 0.493548 1.15564 0.700813 0.493548 1.19457 0.661884 0.493548 
1.17818 0.678277 0.493548 1.18216 0.674297 0.493548 1.20081 0.655641 0.493548 
1.20908 0.647369 0.493548 1.22245 0.633999 0.493548 1.22581 0.630639 0.493548 
1.24315 0.613298 0.493548 1.24477 0.611682 0.493548 1.263 0.593451 0.493548 
1.26584 0.590609 0.493548 1.28207 0.574383 0.493548 1.28875 0.567703 0.493548 
1.30044 0.556017 0.493548 1.31303 0.54342 0.493548 1.31819 0.538267 0.493548 
1.3354 0.521053 0.493548 1.33808 0.518373 0.493548 1.35214 0.504316 0.493548 
1.36317 0.493286 0.493548 1.3685 0.487957 0.493548 1.38452 0.471928 0.493548 
1.38753 0.468924 0.493548 1.40029 0.456165 0.493548 1.41047 0.445983 0.493548 
1.41584 0.440608 0.493548 1.43126 0.425189 0.493548 1.43143 0.425021 0.493548 
1.44658 0.409875 0.493548 1.45007 0.40638 0.493548 1.46185 0.394607 0.493548 
1.46624 0.390207 0.493548 1.49146 0.364994 0.493548 1.47711 0.379337 0.493548 
1.47999 0.376466 0.493548 1.49242 0.364032 0.493548 1.5009 0.35555 0.493548 
1.49223 0.365233 0.492537 1.51974 0.336709 0.493548 1.51478 0.341671 0.493548 
1.5078 0.348656 0.493548 1.50858 0.347867 0.493548 1.5293 0.327154 0.493548 
1.52682 0.329628 0.493548 1.52328 0.333171 0.493548 1.52369 0.332761 0.493548 
1.52251 0.337555 0.489935 1.1521 0.70832 0.489579 1.14721 0.713213 0.489579 
1.14322 0.717197 0.489579 1.17413 0.686295 0.489579 1.16535 0.695066 0.489579 
1.15407 0.706348 0.489579 1.15808 0.702337 0.489579 1.15377 0.709362 0.486868 
1.19704 0.663377 0.489579 1.17774 0.682679 0.489579 1.18462 0.675802 0.489579 
1.20039 0.660033 0.489579 1.21158 0.648842 0.489579 1.22205 0.638374 0.489579 
1.22833 0.632086 0.489579 1.24276 0.617661 0.489579 1.24733 0.613095 0.489579 
1.26261 0.597808 0.489579 1.26844 0.591982 0.489579 1.28168 0.578738 0.489579 
1.29139 0.569029 0.489579 1.30005 0.560373 0.489579 1.31573 0.544694 0.489579 
1.31779 0.542628 0.489579 1.31753 0.545546 0.486924 1.335 0.525424 0.489579 
1.34083 0.519586 0.489579 1.35172 0.508701 0.489579 1.36598 0.494444 0.489579 
1.36806 0.492362 0.489579 1.36778 0.495187 0.487033 1.38406 0.476358 0.489579 
1.3904 0.470025 0.489579 1.3998 0.460622 0.489579 1.41338 0.44704 0.489579 
1.41532 0.445097 0.489579 1.41503 0.447638 0.487332 1.4307 0.429717 0.489579 
1.43439 0.426034 0.489579 1.44598 0.414442 0.489579 1.45306 0.407364 0.489579 
1.4612 0.399218 0.489579 1.46925 0.39117 0.489579 1.47642 0.383999 0.489579 
1.48301 0.377414 0.489579 1.50394 0.356483 0.489579 1.49167 0.368746 0.489579 
1.49449 0.365932 0.489579 1.51782 0.3426 0.489579 1.507 0.353424 0.489579 
1.51162 0.348797 0.489579 1.50636 0.357227 0.486413 1.53233 0.328089 0.489579 
1.52986 0.330561 0.489579 1.52673 0.333691 0.489579 1.52243 0.337989 0.489579 
1.52278 0.337638 0.489579 1.15001 0.714963 0.485022 1.14603 0.718946 0.485022 
1.17694 0.688035 0.485022 1.16817 0.696812 0.485022 1.16089 0.704086 0.485022 
1.15357 0.711407 0.485022 1.15491 0.710071 0.485022 1.15304 0.716849 0.480111 
1.19989 0.665092 0.485022 1.17725 0.687733 0.485022 1.18745 0.677531 0.485022 
1.1772 0.688193 0.484607 1.1999 0.665076 0.485022 1.21444 0.650534 0.485022 
1.1999 0.6651 0.485 1.22158 0.643398 0.485022 1.23123 0.633748 0.485022 
1.24231 0.622671 0.485022 1.25026 0.614718 0.485022 1.26217 0.60281 0.485022 
1.27142 0.593558 0.485022 1.28124 0.583737 0.485022 1.29443 0.570552 0.485022 
1.2996 0.565376 0.485022 1.31734 0.547636 0.485022 1.31882 0.546154 0.485022 
1.33454 0.530443 0.485022 1.344 0.52098 0.485022 1.35124 0.513737 0.485022 
1.36756 0.497419 0.485022 1.36921 0.495771 0.485022 1.38353 0.481444 0.485022 
1.39369 0.471289 0.485022 1.39924 0.46574 0.485022 1.41473 0.450251 0.485022 
1.41673 0.448249 0.485022 1.43006 0.434915 0.485022 1.43778 0.427198 0.485022 
1.44529 0.419684 0.485022 1.45648 0.408494 0.485022 1.46047 0.404513 0.485022 
1.4727 0.392275 0.485022 1.45976 0.409575 0.480665 1.47563 0.389351 0.485022 
1.48648 0.378501 0.485022 1.47508 0.393036 0.481884 1.49082 0.374159 0.485022 
1.49797 0.367008 0.485022 1.48996 0.379593 0.480447 1.52131 0.343667 0.485022 
1.51511 0.349864 0.485022 1.50608 0.3589 0.485022 1.50742 0.357553 0.485022 
1.53582 0.329161 0.485022 1.53335 0.331631 0.485022 1.53022 0.334759 0.485022 
1.52144 0.34354 0.485022 1.52627 0.338705 0.485022 1.52141 0.343697 0.484893 
1.53667 0.329424 0.483906 1.5361 0.332476 0.481424 1.14925 0.720952 0.479796 
1.17139 0.698815 0.479796 1.16411 0.706092 0.479796 1.15813 0.712078 0.479796 
1.15301 0.717198 0.479796 1.15323 0.71697 0.479796 1.15245 0.722945 0.474605 
1.19069 0.679514 0.479796 1.17668 0.69352 0.479796 1.18018 0.690029 0.479796 
1.21773 0.652474 0.479796 1.19936 0.670847 0.479796 1.20315 0.667055 0.479796 
1.22104 0.64916 0.479796 1.23455 0.635654 0.479796 1.22058 0.654157 0.475263 
1.24179 0.628416 0.479796 1.25362 0.616579 0.479796 1.26166 0.608546 0.479796 
1.27484 0.595366 0.479796 1.28073 0.589471 0.479796 1.29791 0.572298 0.479796 
1.29909 0.571112 0.479796 1.29894 0.572817 0.478243 1.31683 0.553377 0.479796 
1.32238 0.547823 0.479796 1.33401 0.536198 0.479796 1.34763 0.522577 0.479796 
1.35069 0.519511 0.479796 1.35029 0.52375 0.47596 1.36698 0.50322 0.479796 
1.37292 0.497288 0.479796 1.38293 0.487276 0.479796 1.39746 0.472739 0.479796 
1.39859 0.47161 0.479796 1.39843 0.47311 0.47846 1.41404 0.456162 0.479796 
1.42057 0.449633 0.479796 1.42933 0.440877 0.479796 1.44167 0.428532 0.479796 
1.44451 0.425697 0.479796 1.44403 0.429341 0.476629 1.45962 0.410586 0.479796 
1.46041 0.40979 0.479796 1.47471 0.395489 0.479796 1.47666 0.393541 0.479796 
1.50196 0.368242 0.479796 1.48984 0.380367 0.479796 1.49046 0.379748 0.479796 
1.51912 0.351088 0.479796 1.50502 0.365183 0.479796 1.51142 0.358779 0.479796 
1.50438 0.36899 0.47663 1.53422 0.335984 0.479796 1.53028 0.339929 0.479796 
1.5203 0.349902 0.479796 1.52532 0.344889 0.479796 1.52004 0.35137 0.47859 
1.53981 0.330391 0.479796 1.53572 0.334484 0.479796 1.53735 0.332858 0.479796 
1.53537 0.336336 0.478294 1.53445 0.341205 0.474345 1.17508 0.701107 0.473812 
1.1678 0.708388 0.473812 1.16181 0.714377 0.473812 1.15692 0.719268 0.473812 
1.15294 0.723249 0.473812 1.1944 0.681784 0.473812 1.17604 0.700146 0.473812 
1.18388 0.692312 0.473812 1.1759 0.701616 0.472484 1.19873 0.677455 0.473812 
1.20688 0.669303 0.473812 1.19811 0.68405 0.46784 1.23835 0.637836 0.473812 
1.22043 0.655753 0.473812 1.22149 0.654695 0.473812 1.24119 0.634994 0.473812 
1.25748 0.618711 0.473812 1.24081 0.639246 0.469944 1.26107 0.615114 0.473812 
1.27875 0.597436 0.473812 1.2606 0.620438 0.468962 1.28015 0.596037 0.473812 
1.27997 0.598081 0.471949 1.29851 0.577677 0.473812 1.3019 0.574291 0.473812 
1.31624 0.559951 0.473812 1.32645 0.549734 0.473812 1.3334 0.542788 0.473812 
1.35006 0.526123 0.473812 1.35179 0.524403 0.473812 1.36633 0.509863 0.473812 
1.37716 0.499025 0.473812 1.38223 0.493955 0.473812 1.38152 0.500808 0.467672 
1.39786 0.478331 0.473812 1.4018 0.474392 0.473812 1.41326 0.462931 0.473812 
1.42497 0.451217 0.473812 1.42848 0.447703 0.473812 1.42792 0.452278 0.469802 
1.4436 0.432585 0.473812 1.44613 0.430057 0.473812 1.45864 0.417545 0.473812 
[...]
POINT_DATA 1600
FIELD FieldData 5
pressure 1 1600 float
0.319037 0.314433 0.308217 0.267312 0.343544 0.328783 0.320855 0.322674 0.345258 
0.374797 0.34386 0.416379 0.396665 0.402789 0.417236 0.424445 0.416864 0.425353 
0.429189 0.429504 0.429352 0.432062 0.432265 0.433713 0.434241 0.434647 0.435117 
0.435245 0.436068 0.436339 0.436905 0.437439 0.437505 0.437468 0.437736 0.437745 
0.437882 0.438021 0.438151 0.438475 0.438541 0.43889 0.438482 0.438926 0.439127 
0.43889 0.439137 0.439124 0.43912 0.439146 0.439148 0.178573 0.439321 0.439029 
0.439093 0.439089 0.439086 0.20534 0.439284 0.319251 0.314678 0.308577 0.268976 
0.329163 0.319959 0.322862 0.318906 0.376179 0.342034 0.344887 0.393674 0.403626 
0.424779 0.416518 0.417037 0.42505 0.424897 0.429328 0.42937 0.431918 0.432385 
0.433633 0.434324 0.434637 0.435183 0.435187 0.435189 0.436017 0.436403 0.436838 
0.437466 0.43747 0.437731 0.437745 0.437849 0.438025 0.438093 0.438272 0.438474 
0.438483 0.439108 0.438862 0.438886 0.439109 0.439092 0.439151 0.439077 0.439105 
0.439111 0.438989 0.439057 0.439062 0.439048 0.439415 0.439255 0.439267 0.439282 
0.439291 0.31368 0.307945 0.280118 0.32848 0.322178 0.317705 0.318557 0.376108 
0.337253 0.344709 0.388937 0.403732 0.414922 0.417138 0.424529 0.425054 0.429284 
0.429793 0.431969 0.43273 0.433727 0.434568 0.43478 0.435342 0.435432 0.436133 
0.436657 0.436932 0.437567 0.437655 0.437899 0.437946 0.438029 0.438283 0.438287 
0.438701 0.438791 0.439128 0.439227 0.439493 0.439446 0.439484 0.4395 0.439545 
0.43944 0.43944 0.439473 0.439523 0.439522 0.439443 0.439472 0.439344 0.439333 
0.439262 0.314214 0.309127 0.291325 0.328682 0.322362 0.315834 0.318808 0.314657 
0.378215 0.333361 0.34601 0.385246 0.405429 0.414108 0.418273 0.424344 0.425785 
0.429089 0.430045 0.431822 0.432922 0.433673 0.434758 0.434837 0.4349 0.435321 
0.4355 0.436023 0.436672 0.436784 0.436762 0.437479 0.437672 0.437828 0.437853 
0.437879 0.43786 0.438123 0.438193 0.438511 0.43869 0.438917 0.439091 0.43923 
0.439317 0.439315 0.439297 0.439283 0.439256 0.439308 0.439305 0.439288 0.439254 
0.439284 0.439144 0.439245 0.439245 0.310727 0.299952 0.328707 0.322561 0.319099 
0.313793 0.314891 0.312398 0.380647 0.329072 0.347164 0.328717 0.380683 0.407343 
0.380659 0.413096 0.419357 0.42391 0.426336 0.428942 0.430475 0.431795 0.433299 
0.433737 0.434906 0.434986 0.43539 0.435658 0.435999 0.43676 0.436835 0.437458 
0.437739 0.437829 0.437876 0.437873 0.438083 0.43824 0.438452 0.438751 0.438862 
0.439127 0.438721 0.439184 0.439315 0.43908 0.439309 0.439273 0.439206 0.43922 
0.439273 0.439278 0.439279 0.439236 0.439263 0.439132 0.439219 0.439218 0.439216 
0.439204 0.43916 0.306534 0.322833 0.319478 0.315597 0.312211 0.312499 0.310187 
0.348567 0.326293 0.329345 0.409541 0.372798 0.382652 0.412149 0.42078 0.41151 
0.423668 0.427106 0.428782 0.43082 0.431587 0.43351 0.433615 0.433593 0.434858 
0.435171 0.43547 0.435864 0.436 0.435912 0.436744 0.43702 0.437473 0.43786 
0.437874 0.437883 0.437894 0.437867 0.437984 0.438215 0.438298 0.438247 0.438698 
0.438717 0.439024 0.43905 0.43914 0.439189 0.439192 0.439143 0.439149 0.439178 
0.439088 0.439006 0.439079 0.439131 0.439092 0.439126 0.439098 0.439058 0.439118 
0.438985 0.438996 0.323073 0.31997 0.316576 0.314025 0.310618 0.350036 0.323652 
0.329927 0.323148 0.362664 0.385232 0.351349 0.42242 0.410382 0.411954 0.423514 
0.427962 0.423442 0.428682 0.431294 0.428681 0.431469 0.43144 0.433447 0.433778 
0.434766 0.435315 0.435459 0.435878 0.435943 0.436628 0.437164 0.437415 0.437359 
0.437886 0.437945 0.437956 0.437907 0.437951 0.437883 0.43823 0.438287 0.438648 
0.438789 0.438971 0.439062 0.439129 0.439157 0.439073 0.439077 0.43905 0.439012 
0.439069 0.439078 0.439011 0.439005 0.439026 0.438934 0.438991 0.438989 0.43893 
0.438899 0.320643 0.317727 0.315701 0.31346 0.33046 0.321925 0.32358 0.321081 
0.388496 0.350012 0.351686 0.405047 0.413982 0.422805 0.423919 0.428547 0.428884 
0.431285 0.431745 0.433269 0.434091 0.434718 0.435528 0.435554 0.435586 0.435848 
0.436111 0.436542 0.437351 0.437378 0.437883 0.438001 0.437984 0.438086 0.437883 
0.437881 0.438111 0.43832 0.43851 0.438822 0.438405 0.438872 0.439031 0.438837 
0.439039 0.439069 0.439025 0.439047 0.438935 0.439042 0.438957 0.43894 0.438953 
0.438858 0.438889 0.438818 0.438868 0.438917 0.43889 0.438906 0.438882 0.438877 
0.438874 0.438764 0.318904 0.317425 0.315821 0.330916 0.324087 0.320421 0.321353 
0.319637 0.392776 0.338716 0.354926 0.331277 0.398691 0.416023 0.395312 0.421142 
0.425078 0.428064 0.429606 0.431076 0.432178 0.433064 0.434442 0.434653 0.434618 
0.435505 0.43569 0.435848 0.436309 0.436443 0.436394 0.437272 0.437624 0.43792 
0.438096 0.438097 0.43797 0.43795 0.43805 0.43799 0.438396 0.438417 0.438778 
0.438864 0.438971 0.438991 0.439003 0.438989 0.438934 0.438862 0.438866 0.438841 
0.438759 0.438792 0.438862 0.438859 0.438824 0.438794 0.438798 0.438759 0.438732 
0.438759 0.438731 0.438734 0.438713 0.318917 0.317893 0.324617 0.322028 0.319427 
0.320074 0.319383 0.319205 0.359011 0.329623 0.331965 0.325034 0.418033 0.388237 
0.397897 0.419357 0.426324 0.418763 0.427651 0.430339 0.427313 0.430921 0.43261 
0.430825 0.432811 0.432728 0.434431 0.434746 0.435374 0.435818 0.435868 0.435881 
0.436313 0.43653 0.437143 0.437883 0.437919 0.437921 0.438128 0.438111 0.438039 
0.4381 0.437999 0.438016 0.438317 0.438544 0.43869 0.438899 0.438641 0.438914 
0.438909 0.438902 0.438934 0.438934 0.438889 0.438763 0.438896 0.438771 0.438765 
0.438777 0.438736 0.438657 0.438684 0.438743 0.438698 0.438751 0.438716 0.438704 
0.438691 0.438705 0.438642 0.438644 0.322648 0.321134 0.320392 0.319434 0.363663 
0.333951 0.324874 0.325094 0.323118 0.370033 0.404057 0.36475 0.41665 0.420269 
0.42694 0.427563 0.43063 0.430961 0.432411 0.432932 0.434021 0.434992 0.435241 
0.435157 0.435805 0.435901 0.436169 0.436781 0.436958 0.436865 0.437783 0.438082 
0.438172 0.438205 0.438107 0.438092 0.438014 0.438125 0.438208 0.438156 0.438604 
0.438685 0.438868 0.438926 0.438932 0.438893 0.438922 0.438877 0.438839 0.438864 
0.438765 0.438711 0.438797 0.438621 0.438696 0.438713 0.438713 0.438667 0.438626 
0.438632 0.438592 0.438619 0.43862 0.438616 0.438643 0.438616 0.438605 0.438548 
0.438554 0.322072 0.321532 0.320633 0.335569 0.326018 0.32292 0.323224 0.322546 
0.412004 0.347057 0.37085 0.336185 0.414246 0.422961 0.413804 0.425651 0.428606 
0.425179 0.429969 0.431389 0.429571 0.432042 0.433303 0.43172 0.433611 0.433467 
0.435001 0.435207 0.435611 0.435955 0.436029 0.435982 0.436644 0.437011 0.437516 
0.437205 0.438161 0.438207 0.438136 0.438029 0.438013 0.438011 0.438093 0.438233 
0.438436 0.438793 0.438302 0.438799 0.438795 0.438901 0.438903 0.438859 0.438818 
0.43883 0.43878 0.438759 0.438746 0.43863 0.438671 0.438652 0.438691 0.438553 
0.43862 0.438613 0.43861 0.438579 0.438546 0.438551 0.438517 0.438547 0.438546 
0.438532 0.438557 0.438518 0.438509 0.438461 0.322934 0.322533 0.326774 0.323902 
0.322948 0.323025 0.322962 0.322912 0.381564 0.330692 0.339016 0.327027 0.400175 
0.418623 0.388221 0.425209 0.425929 0.429556 0.429629 0.4316 0.431836 0.433269 
0.433755 0.434581 0.435364 0.434352 0.435457 0.435421 0.435851 0.436027 0.43633 
0.436112 0.437137 0.437227 0.437825 0.438149 0.438145 0.438129 0.437992 0.437953 
0.437979 0.437919 0.438225 0.438335 0.438573 0.43879 0.438398 0.438809 0.438781 
0.438816 0.438807 0.438733 0.438703 0.438661 0.438668 0.43866 0.438597 0.438541 
0.438578 0.43857 0.438577 0.438464 0.438476 0.438536 0.438535 0.43852 0.438474 
0.438476 0.438477 0.438463 0.438443 0.438464 0.43845 0.438486 0.438456 0.43845 
0.438406 0.438404 0.324476 0.323648 0.323502 0.323202 0.344477 0.324791 0.328217 
0.324533 0.324296 0.424744 0.368532 0.392711 0.347017 0.4258 0.429123 0.42591 
0.429929 0.430532 0.430618 0.431223 0.432666 0.431196 0.433098 0.43308 0.434351 
0.434362 0.43522 0.435523 0.435678 0.435638 0.436071 0.436142 0.436679 0.437383 
0.436361 0.437437 0.4374 0.437834 0.43795 0.43793 0.43789 0.437862 0.437909 
0.438012 0.437924 0.438322 0.438408 0.438577 0.438686 0.438446 0.438688 0.438661 
0.438643 0.438632 0.438571 0.438551 0.438491 0.438542 0.438544 0.438473 0.438463 
0.438474 0.438464 0.438485 0.438404 0.438463 0.438465 0.438454 0.438412 0.438437 
0.438436 0.438396 0.438401 0.438402 0.438391 0.438438 0.438434 0.438431 0.438388 
0.438388 0.324569 0.324342 0.330248 0.325677 0.324577 0.324798 0.324584 0.324548 
0.405045 0.335642 0.354641 0.330642 0.326498 0.413691 0.429267 0.409002 0.4311 
0.431578 0.4328 0.431643 0.431576 0.433219 0.432784 0.433609 0.432502 0.434273 
0.434926 0.434277 0.435074 0.435073 0.435561 0.435702 0.435887 0.435867 0.436357 
0.436365 0.436972 0.437485 0.436692 0.437535 0.437498 0.4377 0.437749 0.437757 
0.437718 0.43785 0.43799 0.438103 0.438058 0.438365 0.438445 0.438495 0.438509 
0.438458 0.438508 0.438502 0.438457 0.438446 0.438362 0.438433 0.438435 0.438383 
0.438445 0.438454 0.43842 0.438414 0.438417 0.438405 0.438444 0.438375 0.438414 
0.438428 0.438414 0.438414 0.438389 0.438394 0.438364 0.438376 0.438379 0.438375 
0.43843 0.438411 0.438385 0.438384 0.438348 0.438364 0.438371 0.438272 0.438268 
0.325626 0.325448 0.325337 0.370772 0.335418 0.326197 0.326957 0.325862 0.326047 
0.326328 0.376037 0.415615 0.372048 0.339806 0.430413 0.433269 0.422851 0.433219 
0.43324 0.432529 0.43254 0.434084 0.434454 0.434978 0.435309 0.434826 0.435423 
0.435401 0.435805 0.435922 0.436151 0.43612 0.436684 0.436701 0.437138 0.4375 
0.436997 0.437507 0.4375 0.437584 0.43772 0.437455 0.43774 0.437729 0.437974 
0.438234 0.437912 0.43827 0.438279 0.438405 0.438439 0.438522 0.438419 0.438437 
0.438356 0.438337 0.438403 0.438337 0.438368 0.438294 0.438386 0.43843 0.438376 
0.438433 0.438468 0.438435 0.438454 0.438463 0.438428 0.438473 0.438549 0.438449 
0.438423 0.438426 0.438438 0.438521 0.438242 0.438302 0.438436 0.438349 0.43845 
0.438447 0.438501 0.438245 0.438244 0.438255 0.438235 0.43827 0.438296 0.438404 
0.438434 0.438169 0.43816 0.438133 0.438144 0.329297 0.327033 0.326562 0.326463 
0.395084 0.334022 0.345215 0.329812 0.327925 0.327747 0.4339 0.415971 0.424366 
0.406387 0.362941 0.433873 0.433511 0.433899 0.428303 0.433355 0.433296 0.433574 
0.4334 0.43335 0.434659 0.434858 0.43521 0.435495 0.434981 0.4356 0.435529 
0.436012 0.436193 0.436433 0.436342 0.436927 0.437031 0.437181 0.437105 0.437388 
0.437444 0.437562 0.437405 0.437876 0.437982 0.43822 0.438201 0.438506 0.438567 
0.438522 0.438686 0.438413 0.438396 0.43831 0.438298 0.438345 0.438316 0.438302 
0.438446 0.438492 0.438375 0.43858 0.438596 0.438611 0.438581 0.438577 0.438642 
0.438752 0.438553 0.438493 0.43862 0.438767 0.438187 0.438363 0.438435 0.438435 
0.438449 0.438547 0.438182 0.438183 0.438309 0.438416 0.438561 0.327844 0.335441 
0.329057 0.327863 0.327862 0.3281 0.418186 0.360374 0.364303 0.338136 0.331205 
0.434551 0.428742 0.429321 0.429048 0.434434 0.434084 0.434609 0.434811 0.433933 
0.433819 0.434163 0.433883 0.433853 0.434793 0.434996 0.434283 0.435246 0.435551 
0.435046 0.435619 0.435545 0.436093 0.436428 0.43554 0.436553 0.436461 0.436879 
0.437056 0.436472 0.437053 0.437004 0.437175 0.437401 0.436803 0.437506 0.437417 
0.437978 0.438467 0.437521 0.43851 0.438515 0.438692 0.438745 0.438783 0.438728 
0.438747 0.43845 0.438297 0.43868 0.43829 0.438288 0.43834 0.438462 0.438255 
0.43856 0.438523 0.438748 0.438761 0.438624 0.438792 0.438748 0.438845 0.438594 
0.438587 0.438678 0.438793 0.438578 0.438617 0.438747 0.3292 0.328432 0.39813 
0.350778 0.329503 0.33305 0.329253 0.328571 0.399604 0.434203 0.398676 0.359485 
0.338552 0.436039 0.436012 0.435419 0.440093 0.425689 0.435969 0.434738 0.436089 
0.438536 0.434679 0.434777 0.437357 0.434344 0.434319 0.435334 0.434812 0.435087 
0.434557 0.435199 0.435063 0.43549 0.435555 0.435116 0.435976 0.43558 0.436431 
0.436466 0.436595 0.436386 0.436727 0.436762 0.436894 0.436635 0.437329 0.437597 
0.436556 0.437935 0.437707 0.438555 0.438919 0.437957 0.438918 0.438959 0.438769 
0.43855 0.438978 0.43851 0.438528 0.43827 0.438274 0.438325 0.438293 0.438276 
0.438142 0.438498 0.438701 0.438243 0.438764 0.438732 0.438295 0.438788 0.438821 
0.438728 0.438805 0.438897 0.438906 0.332138 0.329902 0.38228 0.332418 0.344198 
0.332167 0.330234 0.440583 0.421244 0.426557 0.395694 0.35808 0.339674 0.439513 
0.439088 0.440711 0.437502 0.437975 0.437526 0.440118 0.435833 0.435468 0.438011 
0.43497 0.434681 0.435814 0.434801 0.434856 0.435115 0.435117 0.435248 0.435435 
0.435681 0.435316 0.435778 0.435711 0.436143 0.43629 0.4359 0.436294 0.436282 
0.436375 0.436278 0.436527 0.436556 0.437002 0.436635 0.437704 0.438096 0.436819 
0.438378 0.438237 0.438767 0.438902 0.438457 0.438869 0.438892 0.438483 0.438726 
0.438159 0.438102 0.438504 0.438047 0.43794 0.438231 0.438289 0.437856 0.438458 
0.438298 0.438881 0.438514 0.334246 0.422277 0.377168 0.336204 0.343849 0.334576 
0.44037 0.430855 0.438376 0.427355 0.398383 0.363712 0.346342 0.440295 0.440887 
0.440319 0.440731 0.438813 0.440101 0.438525 0.441171 0.440989 0.437634 0.436175 
0.43872 0.441334 0.435982 0.436236 0.438947 0.435337 0.435285 0.43653 0.435375 
0.435505 0.435482 0.435578 0.435551 0.435891 0.436047 0.43577 0.436119 0.43609 
0.43629 0.436317 0.436283 0.436322 0.436319 0.436487 0.436473 0.436371 0.436757 
0.436921 0.436479 0.437344 0.437061 0.438043 0.438591 0.437291 0.438598 0.438593 
0.437496 0.438655 0.438579 0.438513 0.438358 0.43848 0.438138 0.438184 0.437881 
0.437718 0.437902 0.437729 0.437702 0.437528 0.438159 0.437758 0.42065 0.385706 
0.355373 0.442192 0.430737 0.439527 0.425183 0.406381 0.380478 0.442072 0.44113 
0.442583 0.441595 0.437208 0.432847 0.441293 0.441265 0.441184 0.44125 0.439395 
0.438946 0.440827 0.44045 0.437357 0.436644 0.438837 0.440171 0.436293 0.435638 
0.436785 0.438745 0.435638 0.43564 0.437042 0.435773 0.43597 0.435932 0.436019 
0.436015 0.436286 0.43629 0.436322 0.436487 0.436488 0.436613 0.436516 0.436624 
0.436529 0.436544 0.436768 0.436693 0.436605 0.437047 0.436715 0.437459 0.437521 
0.436827 0.437929 0.437633 0.438233 0.438302 0.437704 0.438279 0.438284 0.437694 
0.438009 0.438105 0.437578 0.437432 0.437792 0.437434 0.437388 0.437647 0.410854 
0.439994 0.437571 0.42889 0.433186 0.440128 0.440827 0.44042 0.440299 0.440127 
0.440129 0.438862 0.438723 0.437659 0.43718 0.436916 0.43646 0.436393 0.436469 
0.43664 0.436714 0.436802 0.436871 0.436872 0.43687 0.436851 0.436857 0.436877 
0.437012 0.437315 0.437566 0.437698 0.437767 0.437674 0.437633 
velocity_u 1 1600 float
0.627225 0.650337 0.674834 0.700646 0.53873 0.576497 0.615791 0.603855 0.535482 
0.480143 0.590673 0.384195 0.436962 0.424429 0.382052 0.360233 0.465554 0.357976 
0.34776 0.347093 0.456309 0.341772 0.341343 0.341654 0.34182 0.342483 0.34336 
0.343776 0.346347 0.347131 0.348721 0.350736 0.35165 0.468928 0.357779 0.359602 
0.365163 0.370039 0.373425 0.38118 0.382623 0.391038 0.493154 0.391845 0.398196 
0.464572 0.398657 0.399826 0.381323 0.395972 0.394689 1 0.21877 0.28151 
0.325875 0.360981 0.358191 0.9198 0.306697 0.792333 0.816215 0.840976 0.869656 
0.737885 0.787648 0.767573 0.824986 0.626039 0.7014 0.694379 0.585071 0.5609 
0.484383 0.514901 0.51283 0.483566 0.528571 0.46983 0.469686 0.463335 0.462165 
0.462594 0.462937 0.463635 0.465038 0.465052 0.4672 0.468331 0.469743 0.471281 
0.474262 0.474282 0.481711 0.485183 0.490381 0.497919 0.500067 0.575972 0.511167 
0.511437 0.532118 0.52249 0.523386 0.532189 0.534335 0.541826 0.513022 0.531762 
0.528577 0.391525 0.446413 0.501735 0.485528 0.57745 0.218811 0.315653 0.31165 
0.462008 0.861252 0.87269 0.890076 0.826919 0.841887 0.853144 0.851297 0.743412 
0.809957 0.797177 0.717917 0.686926 0.646692 0.63754 0.606374 0.603767 0.583893 
0.581165 0.569465 0.565086 0.561573 0.558134 0.557398 0.555212 0.554875 0.555536 
0.555924 0.556298 0.557504 0.557748 0.563188 0.567679 0.571025 0.580415 0.580515 
0.59234 0.59502 0.604979 0.608656 0.62285 0.617152 0.619366 0.622177 0.616147 
0.636401 0.524033 0.565755 0.599316 0.597374 0.28665 0.397493 0.47717 0.471734 
0.567771 0.865503 0.874844 0.883791 0.849131 0.856938 0.864094 0.861059 0.866259 
0.793108 0.843529 0.829264 0.784523 0.759062 0.736935 0.724669 0.701959 0.695224 
0.676098 0.669308 0.655216 0.6456 0.639988 0.630628 0.629777 0.668235 0.623262 
0.621172 0.619447 0.617288 0.617144 0.648254 0.61614 0.615842 0.618668 0.623042 
0.624029 0.646947 0.631797 0.633638 0.641853 0.646818 0.653438 0.659938 0.665796 
0.671111 0.669717 0.67485 0.676016 0.61468 0.661535 0.649044 0.697522 0.328031 
0.448646 0.521743 0.575083 0.572074 0.872782 0.878106 0.853449 0.859225 0.862094 
0.868149 0.866701 0.870482 0.804304 0.853092 0.835809 0.853493 0.804273 0.780905 
0.804304 0.772501 0.76249 0.753425 0.747364 0.738326 0.731593 0.72312 0.712116 
0.708374 0.696092 0.695102 0.6864 0.681376 0.678778 0.673169 0.672628 0.669723 
0.667889 0.668632 0.671094 0.671441 0.675754 0.678273 0.682268 0.688222 0.690811 
0.698794 0.717212 0.700878 0.708585 0.717219 0.710752 0.714233 0.732361 0.651713 
0.68848 0.710389 0.70972 0.353415 0.47942 0.556231 0.650585 0.607633 0.652354 
0.356374 0.490854 0.871134 0.85957 0.862694 0.866391 0.870373 0.87037 0.867431 
0.835677 0.856337 0.853512 0.784051 0.813991 0.805109 0.781298 0.772011 0.782914 
0.768809 0.764358 0.762094 0.758721 0.756575 0.750475 0.750008 0.753399 0.743132 
0.740995 0.736245 0.730606 0.729472 0.746508 0.723437 0.721255 0.718493 0.714809 
0.714777 0.721977 0.714678 0.714756 0.71582 0.717423 0.718244 0.73253 0.722735 
0.722978 0.728656 0.72945 0.739995 0.735454 0.735739 0.716651 0.739109 0.737114 
0.74679 0.576741 0.631069 0.709199 0.677632 0.7196 0.367291 0.538006 0.496037 
0.57907 0.641612 0.859524 0.8622 0.86482 0.86752 0.867058 0.834597 0.858984 
0.853239 0.859442 0.823342 0.803145 0.833163 0.77275 0.783826 0.782648 0.771816 
0.767644 0.772009 0.767133 0.765219 0.767761 0.764996 0.765375 0.762345 0.761896 
0.760137 0.758954 0.758062 0.755744 0.755479 0.752964 0.751001 0.750135 0.758963 
0.74762 0.74702 0.746459 0.745981 0.745975 0.753123 0.745958 0.745962 0.746858 
0.747379 0.748432 0.74943 0.7505 0.751445 0.750264 0.752515 0.752849 0.691184 
0.742961 0.731319 0.751946 0.37317 0.503019 0.586052 0.647859 0.642646 0.693849 
0.374355 0.861565 0.863856 0.866202 0.865782 0.852638 0.860433 0.858989 0.860995 
0.800083 0.834375 0.832842 0.787377 0.780641 0.772545 0.771591 0.768096 0.767867 
0.766173 0.765868 0.764306 0.763494 0.762972 0.76227 0.762232 0.762267 0.761784 
0.761479 0.760937 0.759925 0.75989 0.758959 0.758475 0.758397 0.759992 0.758253 
0.758218 0.757919 0.757672 0.757524 0.757301 0.759596 0.757266 0.757184 0.757939 
0.757175 0.757139 0.757404 0.757113 0.757023 0.757493 0.735698 0.755248 0.75405 
0.757682 0.50485 0.588671 0.646107 0.711112 0.695324 0.735704 0.456271 0.374691 
0.504823 0.588549 0.86271 0.864809 0.863171 0.852076 0.858338 0.861463 0.860658 
0.86227 0.795999 0.844758 0.829782 0.851627 0.791484 0.778569 0.794019 0.773442 
0.769822 0.768305 0.767682 0.766505 0.765719 0.764698 0.763124 0.762982 0.762868 
0.762421 0.762303 0.762263 0.761993 0.761888 0.76185 0.761244 0.760974 0.760635 
0.760308 0.760297 0.760404 0.760391 0.760268 0.760357 0.759868 0.759844 0.759388 
0.759262 0.758949 0.758786 0.758517 0.758369 0.75882 0.754539 0.757981 0.757903 
0.645893 0.695121 0.74567 0.735717 0.754445 0.374431 0.504585 0.645462 0.588427 
0.645888 0.694233 0.373923 0.503774 0.863354 0.862828 0.857895 0.860369 0.862654 
0.861996 0.863059 0.862911 0.825867 0.853128 0.850935 0.856812 0.776607 0.800479 
0.792023 0.775018 0.767533 0.775792 0.767304 0.767159 0.766124 0.766665 0.765456 
0.766581 0.765182 0.76536 0.763026 0.762628 0.762255 0.761989 0.761985 0.76174 
0.761752 0.761625 0.761154 0.760622 0.760591 0.760557 0.760376 0.760347 0.760382 
0.76014 0.760361 0.760338 0.759982 0.759716 0.759535 0.759228 0.759483 0.75918 
0.75919 0.758466 0.758821 0.75882 0.758431 0.757985 0.758467 0.734509 0.756365 
0.754296 0.758004 0.587246 0.64441 0.720533 0.693504 0.734242 0.754024 0.37364 