# vtk DataFile Version 5.1
vtk output
ASCII
DATASET STRUCTURED_GRID
DIMENSIONS 12 25 25
POINTS 7500 float
1.81747 1.12391 -0.55 1.81747 1.12541 -0.55 1.81747 1.12821 -0.55 
1.81747 1.13342 -0.55 1.81747 1.14298 -0.55 1.81747 1.16026 -0.55 
1.81747 1.19046 -0.55 1.81747 1.24033 -0.55 1.81747 1.31549 -0.55 
1.81747 1.41446 -0.55 1.81747 1.52391 -0.55 1.81747 1.62391 -0.55 
1.81747 1.12391 -0.553 1.81747 1.12541 -0.553 1.81747 1.12821 -0.553 
1.81747 1.13342 -0.553 1.81747 1.14298 -0.553 1.81747 1.16026 -0.553 
1.81747 1.19046 -0.553 1.81747 1.24033 -0.553 1.81747 1.31549 -0.553 
1.81747 1.41446 -0.553 1.81747 1.52391 -0.553 1.81747 1.62391 -0.553 
1.81747 1.12391 -0.55609 1.81747 1.12541 -0.55609 1.81747 1.12821 -0.55609 
1.81747 1.13342 -0.55609 1.81747 1.14298 -0.55609 1.81747 1.16026 -0.55609 
1.81747 1.19046 -0.55609 1.81747 1.24033 -0.55609 1.81747 1.31549 -0.55609 
1.81747 1.41446 -0.55609 1.81747 1.52391 -0.55609 1.81747 1.62391 -0.55609 
1.81747 1.12391 -0.559363 1.81747 1.12541 -0.559363 1.81747 1.12821 -0.559363 
1.81747 1.13342 -0.559363 1.81747 1.14298 -0.559363 1.81747 1.16026 -0.559363 
1.81747 1.19046 -0.559363 1.81747 1.24033 -0.559363 1.81747 1.31549 -0.559363 
1.81747 1.41446 -0.559363 1.81747 1.52391 -0.559363 1.81747 1.62391 -0.559363 
1.81747 1.12391 -0.562918 1.81747 1.12541 -0.562918 1.81747 1.12821 -0.562918 
1.81747 1.13342 -0.562918 1.81747 1.14298 -0.562918 1.81747 1.16026 -0.562918 
1.81747 1.19046 -0.562918 1.81747 1.24033 -0.562918 1.81747 1.31549 -0.562918 
1.81747 1.41446 -0.562918 1.81747 1.52391 -0.562918 1.81747 1.62391 -0.562918 
1.81747 1.12391 -0.566862 1.81747 1.12541 -0.566862 1.81747 1.12821 -0.566862 
1.81747 1.13342 -0.566862 1.81747 1.14298 -0.566862 1.81747 1.16026 -0.566862 
1.81747 1.19046 -0.566862 1.81747 1.24033 -0.566862 1.81747 1.31549 -0.566862 
1.81747 1.41446 -0.566862 1.81747 1.52391 -0.566862 1.81747 1.62391 -0.566862 
1.81747 1.12391 -0.571312 1.81747 1.12541 -0.571312 1.81747 1.12821 -0.571312 
1.81747 1.13342 -0.571312 1.81747 1.14298 -0.571312 1.81747 1.16026 -0.571312 
1.81747 1.19046 -0.571312 1.81747 1.24033 -0.571312 1.81747 1.31549 -0.571312 
1.81747 1.41446 -0.571312 1.81747 1.52391 -0.571312 1.81747 1.62391 -0.571312 
1.81747 1.12391 -0.576403 1.81747 1.12541 -0.576403 1.81747 1.12821 -0.576403 
1.81747 1.13342 -0.576403 1.81747 1.14298 -0.576403 1.81747 1.16026 -0.576403 
1.81747 1.19046 -0.576403 1.81747 1.24033 -0.576403 1.81747 1.31549 -0.576403 
1.81747 1.41446 -0.576403 1.81747 1.52391 -0.576403 1.81747 1.62391 -0.576403 
1.81747 1.12391 -0.582287 1.81747 1.12541 -0.582287 1.81747 1.12821 -0.582287 
1.81747 1.13342 -0.582287 1.81747 1.14298 -0.582287 1.81747 1.16026 -0.582287 
1.81747 1.19046 -0.582287 1.81747 1.24033 -0.582287 1.81747 1.31549 -0.582287 
1.81747 1.41446 -0.582287 1.81747 1.52391 -0.582287 1.81747 1.62391 -0.582287 
1.81747 1.12391 -0.589143 1.81747 1.12541 -0.589143 1.81747 1.12821 -0.589143 
1.81747 1.13342 -0.589143 1.81747 1.14298 -0.589143 1.81747 1.16026 -0.589143 
1.81747 1.19046 -0.589143 1.81747 1.24033 -0.589143 1.81747 1.31549 -0.589143 
1.81747 1.41446 -0.589143 1.81747 1.52391 -0.589143 1.81747 1.62391 -0.589143 
1.81747 1.12391 -0.597175 1.81747 1.12541 -0.597175 1.81747 1.12821 -0.597175 
1.81747 1.13342 -0.597175 1.81747 1.14298 -0.597175 1.81747 1.16026 -0.597175 
1.81747 1.19046 -0.597175 1.81747 1.24033 -0.597175 1.81747 1.31549 -0.597175 
1.81747 1.41446 -0.597175 1.81747 1.52391 -0.597175 1.81747 1.62391 -0.597175 
1.81747 1.12391 -0.606626 1.81747 1.12541 -0.606626 1.81747 1.12821 -0.606626 
1.81747 1.13342 -0.606626 1.81747 1.14298 -0.606626 1.81747 1.16026 -0.606626 
1.81747 1.19046 -0.606626 1.81747 1.24033 -0.606626 1.81747 1.31549 -0.606626 
1.81747 1.41446 -0.606626 1.81747 1.52391 -0.606626 1.81747 1.62391 -0.606626 
1.81747 1.12391 -0.617779 1.81747 1.12541 -0.617779 1.81747 1.12821 -0.617779 
1.81747 1.13342 -0.617779 1.81747 1.14298 -0.617779 1.81747 1.16026 -0.617779 
1.81747 1.19046 -0.617779 1.81747 1.24033 -0.617779 1.81747 1.31549 -0.617779 
1.81747 1.41446 -0.617779 1.81747 1.52391 -0.617779 1.81747 1.62391 -0.617779 
1.81747 1.12391 -0.630969 1.81747 1.12541 -0.630969 1.81747 1.12821 -0.630969 
1.81747 1.13342 -0.630969 1.81747 1.14298 -0.630969 1.81747 1.16026 -0.630969 
1.81747 1.19046 -0.630969 1.81747 1.24033 -0.630969 1.81747 1.31549 -0.630969 
1.81747 1.41446 -0.630969 1.81747 1.52391 -0.630969 1.81747 1.62391 -0.630969 
1.81747 1.12391 -0.646595 1.81747 1.12541 -0.646595 1.81747 1.12821 -0.646595 
1.81747 1.13342 -0.646595 1.81747 1.14298 -0.646595 1.81747 1.16026 -0.646595 
1.81747 1.19046 -0.646595 1.81747 1.24033 -0.646595 1.81747 1.31549 -0.646595 
1.81747 1.41446 -0.646595 1.81747 1.52391 -0.646595 1.81747 1.62391 -0.646595 
1.81747 1.12391 -0.665124 1.81747 1.12541 -0.665124 1.81747 1.12821 -0.665124 
1.81747 1.13342 -0.665124 1.81747 1.14298 -0.665124 1.81747 1.16026 -0.665124 
1.81747 1.19046 -0.665124 1.81747 1.24033 -0.665124 1.81747 1.31549 -0.665124 
1.81747 1.41446 -0.665124 1.81747 1.52391 -0.665124 1.81747 1.62391 -0.665124 
1.81747 1.12391 -0.687115 1.81747 1.12541 -0.687115 1.81747 1.12821 -0.687115 
1.81747 1.13342 -0.687115 1.81747 1.14298 -0.687115 1.81747 1.16026 -0.687115 
1.81747 1.19046 -0.687115 1.81747 1.24033 -0.687115 1.81747 1.31549 -0.687115 
1.81747 1.41446 -0.687115 1.81747 1.52391 -0.687115 1.81747 1.62391 -0.687115 
1.81747 1.12391 -0.713228 1.81747 1.12541 -0.713228 1.81747 1.12821 -0.713228 
1.81747 1.13342 -0.713228 1.81747 1.14298 -0.713228 1.81747 1.16026 -0.713228 
1.81747 1.19046 -0.713228 1.81747 1.24033 -0.713228 1.81747 1.31549 -0.713228 
1.81747 1.41446 -0.713228 1.81747 1.52391 -0.713228 1.81747 1.62391 -0.713228 
1.81747 1.12391 -0.744248 1.81747 1.12541 -0.744248 1.81747 1.12821 -0.744248 
1.81747 1.13342 -0.744248 1.81747 1.14298 -0.744248 1.81747 1.16026 -0.744248 
1.81747 1.19046 -0.744248 1.81747 1.24033 -0.744248 1.81747 1.31549 -0.744248 
1.81747 1.41446 -0.744248 1.81747 1.52391 -0.744248 1.81747 1.62391 -0.744248 
1.81747 1.12391 -0.781109 1.81747 1.12541 -0.781109 1.81747 1.12821 -0.781109 
1.81747 1.13342 -0.781109 1.81747 1.14298 -0.781109 1.81747 1.16026 -0.781109 
1.81747 1.19046 -0.781109 1.81747 1.24033 -0.781109 1.81747 1.31549 -0.781109 
1.81747 1.41446 -0.781109 1.81747 1.52391 -0.781109 1.81747 1.62391 -0.781109 
1.81747 1.12391 -0.824918 1.81747 1.12541 -0.824918 1.81747 1.12821 -0.824918 
1.81747 1.13342 -0.824918 1.81747 1.14298 -0.824918 1.81747 1.16026 -0.824918 
1.81747 1.19046 -0.824918 1.81747 1.24033 -0.824918 1.81747 1.31549 -0.824918 
1.81747 1.41446 -0.824918 1.81747 1.52391 -0.824918 1.81747 1.62391 -0.824918 
1.81747 1.12391 -0.876993 1.81747 1.12541 -0.876993 1.81747 1.12821 -0.876993 
1.81747 1.13342 -0.876993 1.81747 1.14298 -0.876993 1.81747 1.16026 -0.876993 
1.81747 1.19046 -0.876993 1.81747 1.24033 -0.876993 1.81747 1.31549 -0.876993 
1.81747 1.41446 -0.876993 1.81747 1.52391 -0.876993 1.81747 1.62391 -0.876993 
1.81747 1.12391 -0.938899 1.81747 1.12541 -0.938899 1.81747 1.12821 -0.938899 
1.81747 1.13342 -0.938899 1.81747 1.14298 -0.938899 1.81747 1.16026 -0.938899 
1.81747 1.19046 -0.938899 1.81747 1.24033 -0.938899 1.81747 1.31549 -0.938899 
1.81747 1.41446 -0.938899 1.81747 1.52391 -0.938899 1.81747 1.62391 -0.938899 
1.81747 1.12391 -1.0125 1.81747 1.12541 -1.0125 1.81747 1.12821 -1.0125 
1.81747 1.13342 -1.0125 1.81747 1.14298 -1.0125 1.81747 1.16026 -1.0125 
1.81747 1.19046 -1.0125 1.81747 1.24033 -1.0125 1.81747 1.31549 -1.0125 
1.81747 1.41446 -1.0125 1.81747 1.52391 -1.0125 1.81747 1.62391 -1.0125 
1.81747 1.12391 -1.1 1.81747 1.12541 -1.1 1.81747 1.12821 -1.1 
1.81747 1.13342 -1.1 1.81747 1.14298 -1.1 1.81747 1.16026 -1.1 
1.81747 1.19046 -1.1 1.81747 1.24033 -1.1 1.81747 1.31549 -1.1 
1.81747 1.41446 -1.1 1.81747 1.52391 -1.1 1.81747 1.62391 -1.1 
1.80804 1.12081 -0.54875 1.80804 1.12235 -0.54875 1.80804 1.12522 -0.54875 
1.80804 1.13056 -0.54875 1.80804 1.14036 -0.54875 1.80804 1.15803 -0.54875 
1.80804 1.18879 -0.54875 1.80804 1.23928 -0.54875 1.80804 1.31482 -0.54875 
1.80804 1.41354 -0.54875 1.80804 1.52206 -0.54875 1.80804 1.62081 -0.54875 
1.80804 1.12081 -0.55175 1.80804 1.12235 -0.55175 1.80804 1.12522 -0.55175 
1.80804 1.13056 -0.55175 1.80804 1.14036 -0.55175 1.80804 1.15803 -0.55175 
1.80804 1.18879 -0.55175 1.80804 1.23928 -0.55175 1.80804 1.31482 -0.55175 
1.80804 1.41354 -0.55175 1.80804 1.52206 -0.55175 1.80804 1.62081 -0.55175 
1.80804 1.12081 -0.55484 1.80804 1.12235 -0.55484 1.80804 1.12522 -0.55484 
1.80804 1.13056 -0.55484 1.80804 1.14036 -0.55484 1.80804 1.15803 -0.55484 
1.80804 1.18878 -0.55484 1.80804 1.23928 -0.55484 1.80804 1.31482 -0.55484 
1.80804 1.41354 -0.55484 1.80804 1.52206 -0.55484 1.80804 1.62081 -0.55484 
1.80804 1.12081 -0.558114 1.80804 1.12235 -0.558114 1.80804 1.12522 -0.558114 
1.80804 1.13056 -0.558114 1.80804 1.14036 -0.558114 1.80804 1.15803 -0.558114 
1.80804 1.18878 -0.558114 1.80804 1.23928 -0.558114 1.80804 1.31482 -0.558114 
1.80804 1.41354 -0.558114 1.80804 1.52206 -0.558114 1.80804 1.62081 -0.558114 
1.80804 1.12081 -0.561669 1.80804 1.12235 -0.561669 1.80804 1.12522 -0.561669 
1.80804 1.13056 -0.561669 1.80804 1.14036 -0.561669 1.80804 1.15803 -0.561669 
1.80804 1.18878 -0.561669 1.80804 1.23928 -0.561669 1.80804 1.31482 -0.561669 
1.80804 1.41354 -0.561669 1.80804 1.52206 -0.561669 1.80804 1.62081 -0.561669 
1.80804 1.12081 -0.565614 1.80804 1.12235 -0.565614 1.80804 1.12522 -0.565614 
1.80804 1.13056 -0.565614 1.80804 1.14036 -0.565614 1.80804 1.15803 -0.565614 
1.80804 1.18878 -0.565614 1.80804 1.23928 -0.565614 1.80804 1.31482 -0.565614 
1.80804 1.41354 -0.565614 1.80804 1.52206 -0.565614 1.80804 1.62081 -0.565614 
1.80804 1.12081 -0.570066 1.80804 1.12235 -0.570066 1.80804 1.12522 -0.570066 
1.80804 1.13056 -0.570066 1.80804 1.14036 -0.570066 1.80804 1.15803 -0.570066 
1.80804 1.18878 -0.570066 1.80804 1.23928 -0.570066 1.80804 1.31482 -0.570066 
[...]
POINT_DATA 7500
FIELD FieldData 5
pressure 1 7500 float
0.156442 0.156442 0.18518 0.238461 0.299572 0.333375 0.34557 0.351467 0.349471 
0.283585 0.190309 0.17918 0.213351 0.212265 0.216858 0.247778 0.299664 0.332118 
0.344048 0.350339 0.348647 0.281286 0.189734 0.179146 0.221333 0.223238 0.234924 
0.259973 0.301653 0.330805 0.342444 0.3491 0.347901 0.279114 0.189204 0.179115 
0.244709 0.247646 0.256578 0.272798 0.304287 0.329439 0.340884 0.34774 0.347004 
0.276866 0.188734 0.17909 0.264698 0.267444 0.273274 0.284372 0.307179 0.328068 
0.339124 0.346272 0.346109 0.274441 0.188233 0.179062 0.280881 0.282517 0.286273 
0.293922 0.309619 0.3267 0.337301 0.344771 0.34511 0.271745 0.187705 0.179034 
0.290727 0.291904 0.294674 0.300152 0.311191 0.325225 0.335274 0.343177 0.344 
0.268685 0.187132 0.179002 0.296499 0.297682 0.299653 0.30397 0.311889 0.323668 
0.333164 0.34148 0.342732 0.265158 0.186491 0.178968 0.299929 0.301233 0.302697 
0.30603 0.312126 0.321878 0.330901 0.339686 0.341164 0.261021 0.185796 0.17893 
0.301995 0.303281 0.304398 0.307269 0.31193 0.319984 0.328606 0.337793 0.339247 
0.256206 0.185026 0.178891 0.303122 0.304317 0.305225 0.307628 0.311465 0.318092 
0.326325 0.335867 0.336733 0.250582 0.184215 0.178846 0.303493 0.304439 0.305262 
0.307308 0.310685 0.316319 0.324274 0.333917 0.333528 0.244158 0.183347 0.178802 
0.303386 0.304146 0.304987 0.306766 0.309617 0.314695 0.322566 0.331836 0.329182 
0.236648 0.182476 0.178753 0.302826 0.303393 0.304288 0.305767 0.30853 0.313266 
0.320842 0.329025 0.323595 0.22794 0.181608 0.178707 0.301331 0.301779 0.302696 
0.304106 0.306665 0.311142 0.318198 0.325346 0.316291 0.217902 0.180833 0.178663 
0.29807 0.298576 0.299418 0.300718 0.303013 0.306615 0.313281 0.320778 0.30638 
0.207045 0.180147 0.178626 0.294482 0.294968 0.295699 0.29686 0.298837 0.302117 
0.307685 0.315434 0.290231 0.19659 0.179537 0.178597 0.290366 0.290756 0.291204 
0.29216 0.293824 0.296616 0.301943 0.308923 0.265349 0.188515 0.179057 0.178577 
0.287808 0.288119 0.288525 0.289465 0.291082 0.294441 0.301026 0.300076 0.233004 
0.182706 0.178754 0.178566 0.281691 0.282095 0.282563 0.283339 0.284725 0.287327 
0.292848 0.281353 0.202152 0.179909 0.178614 0.178565 0.271628 0.271898 0.272207 
0.27253 0.273087 0.274306 0.272477 0.23297 0.184608 0.178865 0.178567 0.178571 
0.259675 0.259477 0.259246 0.258925 0.25854 0.256239 0.240294 0.193091 0.179642 
0.178601 0.178562 0.178575 0.23606 0.235508 0.234874 0.233564 0.231738 0.223544 
0.195085 0.18042 0.178664 0.178556 0.178574 0.178573 0.206445 0.20547 0.203875 
0.201207 0.196377 0.188183 0.180628 0.17872 0.178556 0.178573 0.178574 0.178572 
0.180856 0.1806 0.180186 0.179486 0.178285 0.177727 0.17831 0.178553 0.178574 
0.178572 0.178573 0.178573 0.311643 0.311643 0.316935 0.323389 0.332466 0.340746 
0.346898 0.352234 0.348443 0.272419 0.18746 0.178991 0.241147 0.268087 0.297946 
0.316975 0.329197 0.33886 0.345399 0.351107 0.347519 0.270009 0.186984 0.178967 
0.271085 0.279673 0.295584 0.312922 0.326584 0.337111 0.343953 0.349843 0.34662 
0.267879 0.186568 0.178943 0.281849 0.287906 0.296964 0.310354 0.324038 0.335131 
0.342403 0.348446 0.345572 0.265664 0.186199 0.178927 0.290765 0.293993 0.299897 
0.309445 0.321971 0.333042 0.340653 0.346871 0.344489 0.263262 0.185806 0.178906 
0.296168 0.298155 0.302431 0.309395 0.320118 0.330859 0.338766 0.345157 0.343312 
0.260607 0.185384 0.178887 0.299616 0.30123 0.304416 0.309759 0.318365 0.328559 
0.336636 0.343391 0.34197 0.257563 0.184934 0.178863 0.301913 0.303444 0.305665 
0.309891 0.316777 0.326193 0.334425 0.341464 0.34054 0.254069 0.184431 0.17884 
0.303285 0.304704 0.306451 0.309673 0.31547 0.32378 0.332022 0.339529 0.338771 
0.250025 0.183898 0.178812 0.304282 0.305549 0.306747 0.309548 0.314248 0.321396 
0.329604 0.337495 0.336738 0.245398 0.183314 0.178785 0.304784 0.305894 0.306927 
0.309247 0.313128 0.319018 0.327127 0.33559 0.334068 0.240058 0.182711 0.178753 
0.305039 0.305949 0.306793 0.308729 0.311897 0.316949 0.324943 0.333639 0.330801 
0.233933 0.182076 0.178722 0.304743 0.305548 0.306247 0.307937 0.310671 0.315465 
0.323126 0.331543 0.326094 0.226819 0.181451 0.178688 0.303822 0.304469 0.305335 
0.306716 0.309292 0.313959 0.321151 0.328825 0.319511 0.218623 0.180834 0.178656 
0.302005 0.302554 0.303382 0.304732 0.307213 0.311591 0.318754 0.325665 0.310892 
0.209432 0.180265 0.178626 0.298582 0.299245 0.299975 0.301295 0.303618 0.30746 
0.314767 0.321488 0.29843 0.200112 0.179724 0.178602 0.294802 0.295463 0.296106 
0.297425 0.299498 0.30308 0.309525 0.315564 0.279018 0.192007 0.179261 0.178585 
0.290271 0.290701 0.2912 0.292204 0.29388 0.296763 0.302932 0.308485 0.253326 
0.185703 0.178901 0.178573 0.287149 0.287436 0.287712 0.288651 0.290178 0.293404 
0.300547 0.297803 0.222435 0.181397 0.178684 0.178567 0.281567 0.282041 0.282413 
0.283109 0.284293 0.286743 0.291132 0.27193 0.19512 0.179473 0.17859 0.178566 
0.27173 0.272047 0.272348 0.272627 0.273034 0.273846 0.269253 0.221784 0.18251 
0.178753 0.178566 0.17857 0.257818 0.257524 0.257237 0.257001 0.256857 0.253395 
0.230976 0.188423 0.179245 0.178578 0.178565 0.178574 0.234117 0.233501 0.232857 
0.23136 0.228073 0.216323 0.189652 0.179739 0.178612 0.178562 0.178572 0.178574 
0.202395 0.201408 0.199879 0.197391 0.192637 0.185251 0.179775 0.178642 0.178558 
0.178572 0.178574 0.178574 0.179751 0.179516 0.17918 0.178556 0.177754 0.177842 
0.178435 0.178576 0.178571 0.178573 0.178573 0.178573 0.31415 0.31415 0.319525 
0.326068 0.334228 0.341448 0.34701 0.353929 0.348901 0.261352 0.185423 0.1789 
0.243288 0.271308 0.301152 0.319349 0.331015 0.339595 0.345654 0.352713 0.347915 
0.259 0.185039 0.178881 0.273368 0.282177 0.298248 0.315234 0.328386 0.33793 
0.344534 0.351483 0.346946 0.256904 0.184694 0.178864 0.283888 0.29005 0.299379 
0.312475 0.325735 0.336048 0.343153 0.350023 0.345767 0.254717 0.18441 0.178849 
0.292806 0.295946 0.302067 0.311424 0.323554 0.334073 0.341676 0.348415 0.344549 
0.252363 0.184088 0.178834 0.297923 0.299819 0.304471 0.311142 0.321652 0.331989 
0.339936 0.346687 0.343133 0.249725 0.18377 0.178816 0.301097 0.302643 0.306107 
0.311276 0.319864 0.329758 0.337956 0.344705 0.341607 0.246778 0.183407 0.1788 
0.303004 0.304448 0.307107 0.311132 0.318286 0.327295 0.335631 0.342636 0.339773 
0.243406 0.183035 0.178779 0.304275 0.305624 0.307493 0.310821 0.316697 0.324682 
0.333192 0.340348 0.337688 0.239592 0.182619 0.17876 0.304939 0.306168 0.307654 
0.310266 0.315236 0.322017 0.330548 0.338197 0.335079 0.2352 0.182197 0.178735 
0.305285 0.306376 0.307403 0.309761 0.313782 0.319575 0.328057 0.335868 0.331974 
0.230202 0.181738 0.178714 0.305281 0.306237 0.307073 0.309149 0.3125 0.317531 
0.325693 0.333694 0.327878 0.224463 0.181287 0.178685 0.304927 0.305791 0.306568 
0.308241 0.311143 0.315898 0.323508 0.331254 0.322351 0.217928 0.180807 0.178661 
0.304064 0.304746 0.305484 0.307003 0.309516 0.313981 0.32125 0.328673 0.314733 
0.210423 0.180346 0.178634 0.30221 0.302807 0.303638 0.304883 0.307452 0.311722 
0.319089 0.325947 0.304078 0.202486 0.179873 0.178612 0.298831 0.299465 0.300194 
0.301599 0.304067 0.308676 0.316386 0.321731 0.288529 0.194976 0.179446 0.178593 
0.294685 0.295361 0.296046 0.297419 0.299852 0.304161 0.311637 0.315661 0.267185 
0.188689 0.17907 0.178579 0.289445 0.289841 0.290379 0.291445 0.293194 0.296517 
0.303995 0.308165 0.241738 0.183674 0.178801 0.178569 0.285804 0.286044 0.286255 
0.286995 0.288346 0.29128 0.298671 0.294311 0.212928 0.18058 0.178645 0.178565 
0.28152 0.281961 0.28232 0.28304 0.284178 0.286509 0.289054 0.260055 0.190297 
0.179193 0.178583 0.178567 0.271905 0.272259 0.272599 0.2729 0.273385 0.273477 
0.265716 0.212293 0.181243 0.178687 0.178563 0.178573 0.255232 0.254997 0.254846 
0.254825 0.254311 0.249227 0.222524 0.185503 0.179024 0.178572 0.178567 0.178575 
0.232571 0.232092 0.231423 0.230083 0.224649 0.209922 0.186488 0.179372 0.178588 
0.178562 0.178574 0.178573 0.200023 0.199048 0.197537 0.195083 0.190322 0.183579 
0.179395 0.178605 0.178561 0.178574 0.178573 0.178572 0.17925 0.179035 0.178731 
0.178188 0.177707 0.17801 0.178476 0.17857 0.178572 0.178573 0.178573 0.178573 
0.316106 0.316106 0.320785 0.327176 0.334665 0.341527 0.347055 0.354799 0.3467 
0.246436 0.18319 0.178781 0.245303 0.274441 0.303636 0.320699 0.331553 0.339739 
0.345855 0.353485 0.34549 0.244125 0.182924 0.178767 0.27503 0.284245 0.300209 
0.316617 0.329036 0.338172 0.344952 0.352449 0.344246 0.242083 0.182696 0.178755 
0.285728 0.291831 0.30121 0.313796 0.326503 0.336391 0.343898 0.351134 0.342823 
0.239991 0.182504 0.178746 0.294395 0.297473 0.3037 0.312633 0.324461 0.334682 
0.342754 0.3498 0.34123 0.23774 0.182302 0.178735 0.29927 0.301143 0.30592 
0.312296 0.322714 0.332866 0.34149 0.348165 0.339476 0.235311 0.182083 0.178726 
0.302227 0.303716 0.307554 0.31236 0.321153 0.330977 0.339961 0.34638 0.337407 
0.232593 0.181858 0.178712 0.304117 0.305484 0.308425 0.312378 0.319763 0.328938 
0.338192 0.344178 0.335091 0.229558 0.181606 0.178702 0.30536 0.306564 0.30892 
0.312059 0.318503 0.326727 0.335966 0.341831 0.332279 0.226085 0.181352 0.178686 
0.306101 0.307209 0.308935 0.31169 0.317157 0.324283 0.333351 0.339058 0.329073 
0.222155 0.181068 0.178673 0.306313 0.307323 0.308705 0.31108 0.315648 0.321546 
0.330272 0.33632 0.325071 0.217653 0.180783 0.178655 0.30621 0.307092 0.308144 
0.310191 0.313848 0.318773 0.326963 0.333453 0.320198 0.212623 0.180461 0.178641 
0.305621 0.30642 0.307221 0.308971 0.311801 0.31605 0.323761 0.330859 0.313506 
0.206931 0.180138 0.178621 0.304601 0.305257 0.30601 0.307376 0.309923 0.313925 
0.321173 0.3286 0.304357 0.20092 0.17978 0.178607 0.302638 0.303204 0.303919 
0.305321 0.307728 0.311984 0.319343 0.32608 0.291146 0.195034 0.179448 0.178592 
0.299244 0.299943 0.300693 0.302037 0.304626 0.309236 0.31751 0.321691 0.273293 
0.189832 0.179131 0.178581 0.294698 0.295424 0.296081 0.297486 0.299804 0.3046 
0.313722 0.315446 0.251433 0.185162 0.17888 0.178572 0.288755 0.289178 0.289741 
0.290793 0.292722 0.2963 0.30556 0.305465 0.226879 0.181706 0.1787 0.178567 
0.284907 0.285047 0.285247 0.285979 0.286978 0.289469 0.295835 0.284964 0.201674 
0.179821 0.178609 0.178565 0.281588 0.281989 0.282372 0.28299 0.284151 0.286422 
0.285921 0.243559 0.18569 0.178926 0.17857 0.17857 0.270946 0.271183 0.271381 
0.271517 0.271803 0.271146 0.258279 0.201174 0.180138 0.178622 0.178564 0.178573 
0.25151 0.251191 0.251189 0.251288 0.250836 0.243784 0.211279 0.182565 0.178791 
0.178565 0.17857 0.178574 0.229685 0.229216 0.228215 0.226595 0.219304 0.201616 
0.183196 0.178986 0.178568 0.178566 0.178574 0.178573 0.19635 0.195416 0.193962 
0.191601 0.187053 0.18166 0.178972 0.178574 0.178565 0.178574 0.178573 0.178573 
0.178489 0.178319 0.178084 0.17773 0.177673 0.178204 0.178537 0.178574 0.178572 
0.178573 0.178573 0.178573 0.317819 0.317819 0.322576 0.328384 0.335563 0.341883 
0.346812 0.354753 0.343281 0.23044 0.18165 0.178706 0.248065 0.277932 0.306774 
0.322499 0.332648 0.340061 0.345788 0.353495 0.341669 0.228305 0.181486 0.178697 
0.277501 0.287016 0.30293 0.318527 0.330132 0.338462 0.344967 0.352731 0.340115 
0.226462 0.181337 0.17869 0.288428 0.294398 0.303746 0.315639 0.327582 0.336751 
0.343977 0.351796 0.338364 0.224594 0.181225 0.178683 0.296731 0.299851 0.305887 
0.314355 0.325482 0.335015 0.343035 0.35073 0.33648 0.222628 0.181089 0.178677 
0.301152 0.303081 0.307753 0.313749 0.323676 0.333249 0.341893 0.349556 0.334264 
0.220488 0.180962 0.178669 0.303645 0.305294 0.30895 0.313581 0.322017 0.331397 
0.34072 0.348034 0.331776 0.218148 0.18081 0.178663 0.305129 0.306568 0.309653 
0.313245 0.320629 0.329543 0.339264 0.34633 0.328771 0.215531 0.180662 0.178653 
0.306109 0.307408 0.309775 0.312853 0.319394 0.327513 0.337612 0.344116 0.325308 
0.212638 0.180483 0.178645 0.30657 0.307707 0.309707 0.312307 0.318136 0.325336 
0.335468 0.341577 0.32101 0.209378 0.180304 0.178634 0.306641 0.307683 0.309275 
0.311696 0.316719 0.322883 0.332834 0.338423 0.315776 0.205776 0.180086 0.178625 
0.306415 0.307308 0.308684 0.310755 0.314992 0.320155 0.329526 0.334962 0.308903 
0.201764 0.179865 0.178612 0.305939 0.306742 0.307792 0.309604 0.312918 0.317217 
0.325913 0.331355 0.299984 0.197554 0.179607 0.178603 0.305091 0.305716 0.306506 
0.308115 0.310785 0.314693 0.322573 0.328313 0.288457 0.193396 0.179366 0.178591 
0.303224 0.30374 0.304504 0.305849 0.308398 0.312348 0.319727 0.325251 0.273459 
0.18953 0.17912 0.178583 0.299878 0.300547 0.301217 0.302581 0.304911 0.309345 
0.317456 0.320886 0.255552 0.185756 0.178915 0.178574 0.294936 0.295681 0.296311 
0.297539 0.299828 0.304421 0.314318 0.313907 0.234343 0.182561 0.178745 0.178569 
0.288416 0.288826 0.289303 0.290268 0.291888 0.295961 0.306002 0.300206 0.212033 
0.18045 0.178642 0.178565 0.283945 0.284041 0.284457 0.285171 0.286388 0.288898 
0.293437 0.270154 0.192293 0.179308 0.178586 0.178567 0.282051 0.282402 0.282742 
0.283128 0.284035 0.286688 0.282818 0.225709 0.182532 0.178752 0.178568 0.178571 
0.269667 0.269603 0.269494 0.269381 0.269354 0.26751 0.246693 0.192081 0.179461 
0.178596 0.178564 0.178574 0.247145 0.24673 0.246737 0.246429 0.245556 0.236074 
0.200312 0.180756 0.178682 0.178562 0.178572 0.178574 0.226398 0.225604 0.224106 
0.221449 0.212027 0.194085 0.181159 0.178785 0.178559 0.17857 0.178574 0.178573 
0.193007 0.192095 0.190693 0.188385 0.184347 0.180429 0.17878 0.178561 0.17857 
0.178574 0.178573 0.178573 0.177989 0.177889 0.177765 0.177658 0.177916 0.178379 
0.178555 0.178571 0.178573 0.178573 0.178573 0.178573 0.320641 0.320641 0.325333 
0.330722 0.337555 0.342833 0.347484 0.354009 0.332143 0.212956 0.18046 0.178638 
0.251919 0.282488 0.310878 0.325228 0.334804 0.341124 0.346422 0.352803 0.329973 
0.211214 0.18036 0.178633 0.281118 0.290908 0.306798 0.321415 0.332244 0.339454 
0.345433 0.352278 0.328019 0.20974 0.180274 0.178628 0.292159 0.298027 0.30729 
0.318481 0.329662 0.337643 0.344414 0.351488 0.325971 0.208285 0.180198 0.178626 
0.299988 0.303162 0.308937 0.317032 0.327423 0.335853 0.343289 0.350827 0.323678 
0.206745 0.180121 0.178621 0.303909 0.306049 0.310296 0.316146 0.325384 0.333914 
0.342224 0.349919 0.321081 0.205127 0.180031 0.178619 0.305944 0.307789 0.311084 
0.315528 0.32349 0.33206 0.340948 0.349029 0.317985 0.203365 0.179942 0.178613 
0.307032 0.308665 0.311309 0.314844 0.321836 0.330054 0.339731 0.347721 0.314322 
0.20149 0.179832 0.178611 0.307479 0.308863 0.31111 0.314002 0.320311 0.328032 
0.33824 0.34618 0.309756 0.199461 0.179723 0.178604 0.307388 0.308653 0.310586 
0.313125 0.318821 0.325874 0.336666 0.34386 0.30417 0.197307 0.179589 0.178601 
0.306958 0.308059 0.309831 0.312049 0.317275 0.323549 0.33474 0.340918 0.297157 
0.194995 0.179458 0.178594 0.306424 0.307409 0.308917 0.311 0.315485 0.32105 
0.332254 0.337029 0.288598 0.192581 0.179302 0.17859 0.305803 0.306625 0.307882 
0.309733 0.31349 0.31834 0.328991 0.332705 0.278268 0.19002 0.179157 0.178582 
0.305013 0.305607 0.306661 0.308247 0.311364 0.315442 0.324939 0.327872 0.265882 
0.187386 0.178995 0.178578 0.303723 0.304087 0.304933 0.306366 0.308788 0.312424 
0.320375 0.322786 0.251295 0.184702 0.178858 0.178571 0.300949 0.301593 0.302245 
0.303423 0.305515 0.309026 0.316339 0.316959 0.234674 0.182393 0.178733 0.178568 
0.296086 0.2968 0.297311 0.298364 0.300195 0.304459 0.312709 0.308432 0.215716 
0.180651 0.178651 0.178565 0.289138 0.28968 0.290185 0.291029 0.292604 0.296397 
0.304698 0.286233 0.197439 0.179571 0.178596 0.178566 0.283013 0.283206 0.283783 
0.284681 0.286369 0.289943 0.291572 0.246124 0.185574 0.178903 0.178573 0.17857 
0.282335 0.282669 0.282959 0.283323 0.283855 0.284402 0.273626 0.207162 0.180425 
0.178642 0.178563 0.178573 0.265473 0.265139 0.264991 0.264677 0.264125 0.26008 
0.228323 0.18547 0.178961 0.17857 0.178568 0.178574 0.243301 0.242832 0.24239 
0.241127 0.23796 0.225003 0.190487 0.179599 0.178594 0.178564 0.178574 0.178573 
0.221556 0.220193 0.217847 0.213379 0.202536 0.187488 0.17978 0.178628 0.17856 
0.178572 0.178574 0.178573 0.189038 0.188177 0.186912 0.184816 0.181765 0.179448 
0.178623 0.178559 0.178573 0.178574 0.178573 0.178573 0.17766 0.177656 0.177668 
0.177807 0.178203 0.17849 0.17857 0.178572 0.178573 0.178573 0.178573 0.178573 
0.323998 0.323998 0.32868 0.333672 0.340183 0.344932 0.349459 0.353588 0.312812 
0.198318 0.179647 0.178602 0.25662 0.28801 0.315471 0.328511 0.337568 0.343237 
0.348151 0.352244 0.309944 0.197237 0.179583 0.1786 0.285647 0.295495 0.311375 
0.325035 0.335113 0.341451 0.346912 0.351441 0.307446 0.196383 0.179524 0.178599 
0.296367 0.302325 0.311447 0.32209 0.332532 0.339586 0.345479 0.350571 0.304712 
0.195578 0.179482 0.178597 0.303777 0.3071 0.312644 0.320562 0.330182 0.337571 
0.344185 0.349694 0.30177 0.194747 0.179429 0.178596 0.307252 0.309647 0.313504 
0.319354 0.327927 0.33557 0.342692 0.348828 0.298414 0.193859 0.179383 0.178593 
0.308994 0.311095 0.313903 0.318407 0.325793 0.333401 0.341322 0.347813 0.294591 
0.192914 0.179322 0.178592 0.30986 0.311577 0.31384 0.317367 0.323794 0.331235 
0.339759 0.346775 0.290122 0.191859 0.179266 0.178589 0.309976 0.311481 0.313415 
0.316188 0.321861 0.328873 0.338331 0.345435 0.284867 0.190707 0.179193 0.178588 
0.309418 0.310765 0.312457 0.314784 0.319916 0.326522 0.336753 0.343945 0.278676 
0.189398 0.179125 0.178584 0.308401 0.309591 0.311115 0.313216 0.317877 0.323997 
0.33507 0.341829 0.271388 0.18797 0.179038 0.178582 0.306979 0.30802 0.309504 
0.311356 0.315772 0.32149 0.333212 0.339222 0.262917 0.18638 0.178958 0.178577 
0.305618 0.306509 0.307779 0.309638 0.313507 0.318721 0.331019 0.335011 0.252929 
0.184724 0.178861 0.178574 0.304404 0.305008 0.306114 0.307733 0.311061 0.315649 
0.327504 0.328183 0.241171 0.183058 0.178782 0.17857 0.303485 0.303735 0.304819 
0.3061 0.308762 0.312392 0.322229 0.318075 0.227794 0.181621 0.178701 0.178568 
0.301816 0.302292 0.302874 0.303852 0.305583 0.308587 0.315397 0.306727 0.213383 
0.180455 0.178646 0.178565 0.297819 0.298477 0.299031 0.299967 0.301649 0.305191 
0.308858 0.289977 0.198543 0.179639 0.178601 0.178566 0.291075 0.291738 0.292286 
0.293377 0.295204 0.299391 0.303016 0.260495 0.187548 0.179007 0.178579 0.178569 
0.282619 0.283037 0.283654 0.284526 0.286907 0.291469 0.290516 0.221658 0.181641 
0.178706 0.178565 0.178573 0.280484 0.280652 0.280877 0.281395 0.282121 0.281056 
0.256041 0.192442 0.179413 0.178591 0.178566 0.178574 0.258951 0.258499 0.258301 
0.257892 0.257205 0.250492 0.209408 0.18154 0.178709 0.178567 0.178571 0.178574 
0.240089 0.239442 0.23844 0.236499 0.229807 0.210031 0.184126 0.178979 0.178578 
0.178567 0.178574 0.178573 0.214157 0.212141 0.209038 0.203542 0.193305 0.182894 
0.179073 0.178584 0.178565 0.178574 0.178573 0.178573 0.185354 0.184619 0.18358 
0.181972 0.180185 0.178947 0.178586 0.178565 0.178574 0.178573 0.178573 0.178573 
0.177778 0.177841 0.177952 0.178193 0.178429 0.178546 0.178569 0.178573 0.178573 
0.178573 0.178573 0.178573 0.328078 0.328078 0.331972 0.336723 0.343154 0.347943 
0.354214 0.354393 0.281665 0.188815 0.179061 0.17858 0.261538 0.29526 0.319857 
0.331813 0.340491 0.346188 0.352708 0.35284 0.278469 0.188247 0.17903 0.178579 
0.290951 0.30052 0.316026 0.328648 0.338279 0.34455 0.35113 0.351433 0.275761 
0.187734 0.179005 0.178578 0.300516 0.30678 0.315794 0.325913 0.335836 0.342714 
0.349536 0.349983 0.272921 0.187293 0.178981 0.178578 0.307633 0.311022 0.316574 
0.324336 0.333569 0.340854 0.347763 0.348618 0.269896 0.186793 0.17896 0.178576 
0.310717 0.313323 0.317145 0.323032 0.331347 0.338796 0.345983 0.347036 0.266577 
0.186284 0.178931 0.178576 0.31241 0.314527 0.317301 0.322031 0.329171 0.336647 
0.343942 0.345573 0.262851 0.185703 0.178906 0.178575 0.313294 0.315078 0.317316 
0.320968 0.327102 0.334274 0.341854 0.34383 0.258671 0.185085 0.178871 0.178574 
0.313528 0.315077 0.316804 0.319752 0.324967 0.331755 0.339471 0.342235 0.253853 
0.184389 0.178841 0.178572 0.313057 0.314491 0.315934 0.318306 0.322758 0.328977 