# vtk DataFile Version 5.1
vtk output
ASCII
DATASET POLYDATA
POINTS 52 float
1.86292 0.944925 -0.457845 1.86435 0.94482 -0.459165 1.86282 0.94635 -0.459165 
1.87278 0.944196 -0.466971 1.8622 0.954775 -0.466971 1.86204 0.956893 -0.468933 
1.88016 0.943649 -0.473812 1.88287 0.943449 -0.476319 1.86723 0.956577 -0.473812 
1.86165 0.96216 -0.473812 1.86119 0.968424 -0.479614 1.88662 0.943171 -0.479796 
1.8826 0.947196 -0.479796 1.87361 0.95619 -0.479796 1.86138 0.968415 -0.479796 
1.86118 0.96862 -0.479796 1.89227 0.942753 -0.485022 1.8822 0.952827 -0.485022 
1.87917 0.955852 -0.485022 1.88199 0.955681 -0.487671 1.86688 0.968143 -0.485022 
1.86076 0.97426 -0.485022 1.89719 0.942389 -0.489579 1.88402 0.955558 -0.489579 
1.88184 0.957736 -0.489579 1.87167 0.967906 -0.489579 1.8604 0.979178 -0.489579 
1.86038 0.979465 -0.489845 1.90148 0.942072 -0.493548 1.90318 0.941946 -0.495126 
1.88825 0.955301 -0.493548 1.88154 0.96201 -0.493548 1.87585 0.967699 -0.493548 
1.86424 0.979311 -0.493548 1.86008 0.983465 -0.493548 1.9052 0.941796 -0.497 
1.90304 0.94396 -0.497 1.89192 0.955077 -0.497 1.88127 0.965728 -0.497 
1.87948 0.96752 -0.497 1.88115 0.967437 -0.498587 1.86783 0.979168 -0.497 
1.85981 0.987194 -0.497 1.8596 0.989973 -0.499573 1.90844 0.941557 -0.5 
1.90282 0.947185 -0.5 1.89512 0.954883 -0.5 1.88264 0.967364 -0.5 
1.88104 0.96896 -0.5 1.87096 0.979043 -0.5 1.86004 0.989959 -0.5 
1.85957 0.990434 -0.5 
POLYGONS 72 213
OFFSETS vtktypeint64
0 3 6 9 12 15 18 21 24 
27 30 33 36 39 42 45 48 51 
54 57 60 63 66 69 72 75 78 
81 84 87 90 93 96 99 102 105 
108 111 114 117 120 123 126 129 132 
135 138 141 144 147 150 153 156 159 
162 165 168 171 174 177 180 183 186 
189 192 195 198 201 204 207 210 213 

CONNECTIVITY vtktypeint64
0 2 1 1 4 3 2 4 1 
5 3 4 5 8 3 8 6 3 
5 9 8 7 12 11 12 7 6 
12 6 13 13 6 8 10 8 9 
10 14 8 14 13 8 10 15 14 
11 17 16 12 17 11 17 12 13 
18 17 13 13 14 18 18 14 20 
14 21 20 15 21 14 19 16 17 
19 23 16 23 22 16 17 18 19 
19 24 23 24 19 18 24 18 25 
25 18 20 20 26 25 21 26 20 
22 23 28 28 23 30 23 31 30 
24 31 23 31 24 25 32 31 25 
27 25 26 27 33 25 33 32 25 
27 34 33 29 36 35 36 29 28 
36 28 37 37 28 30 30 38 37 
31 38 30 38 31 32 39 38 32 
32 33 39 39 33 41 33 42 41 
34 42 33 35 45 44 36 45 35 
45 36 37 46 45 37 40 37 38 
40 47 37 47 46 37 38 39 40 
40 48 47 48 40 39 48 39 49 
49 39 41 43 41 42 43 50 41 
50 49 41 43 51 50 
POINT_DATA 52
FIELD FieldData 5
pressure 1 52 float
0.717516 0.734659 0.730566 0.828145 0.805077 0.822524 0.893817 0.912505 0.849879 
0.847367 0.872167 0.898444 0.90661 0.875862 0.872455 0.872549 0.879485 0.899176 
0.891384 0.89578 0.879556 0.882655 0.868229 0.890382 0.892745 0.883472 0.889953 
0.890345 0.863378 0.862219 0.882956 0.890243 0.886614 0.8897 0.891981 0.861237 
0.864485 0.879593 0.891418 0.890589 0.892625 0.890037 0.89432 0.897548 0.858026 
0.866548 0.877324 0.89168 0.89286 0.892484 0.897694 0.898002 
velocity_u 1 52 float
0.60776 0.598326 0.602671 0.547082 0.574475 0.568161 0.510574 0.49755 0.553696 
0.550069 0.530829 0.501096 0.503932 0.537131 0.530697 0.530686 0.486843 0.501876 
0.514255 0.491947 0.524943 0.525679 0.447369 0.480664 0.484062 0.508817 0.516031 
0.514278 0.39634 0.371039 0.436422 0.453086 0.473222 0.488578 0.489041 0.342032 
0.347892 0.381122 0.408924 0.415918 0.367163 0.430908 0.432875 0.34224 0.276527 
0.289108 0.306574 0.325884 0.325451 0.329138 0.32739 0.327419 
velocity_v 1 52 float
0.097666 0.0948033 0.0908869 0.0790969 0.0527241 0.0434283 0.0684673 0.0638678 0.044007 
0.043442 0.0446218 0.0605955 0.0576415 0.0451408 0.0446858 0.044726 0.0520249 0.0481722 
0.0444811 0.0386332 0.0452348 0.0460942 0.0335744 0.0341946 0.0351484 0.0401358 0.0442228 
0.0433666 0.0072503 -0.00714735 0.0158915 0.020172 0.0239053 0.0294545 0.0316957 -0.022446 
-0.0206429 -0.0106254 -0.00334011 -0.00213771 -0.0206151 0.00293875 0.00735565 -0.0214974 -0.0590503 
-0.0544614 -0.0462701 -0.0370329 -0.0361151 -0.032288 -0.0265427 -0.0262693 
velocity_w 1 52 float
0.0141803 0.0145072 0.0142233 0.0147948 0.0135771 0.012975 0.0105409 0.00732953 0.0123626 
0.0111516 0.00700254 0.00387794 0.00523606 0.00923703 0.00694755 0.00690695 -0.00286428 0.00143946 
0.00354215 -0.000370485 0.00453715 0.00335332 -0.00758296 -0.0021316 -0.00154351 0.00129708 -0.000292543 
-0.000539237 -0.00867937 -0.00797457 -0.00490052 -0.00353116 -0.00193061 -0.00250812 -0.00289093 -0.00669811 
-0.00649385 -0.00516588 -0.00397221 -0.00374576 -0.00347678 -0.00421582 -0.00465037 -0.00467125 -0.00145081 
-0.00128482 -0.00220777 -0.00302216 -0.00317064 -0.0043152 -0.00460247 -0.00461166 
temperature 1 52 float
0.267208 0.268975 0.268564 0.278596 0.276292 0.2781 0.285604 0.28809 0.280696 
0.280707 0.283708 0.287657 0.287748 0.283593 0.283739 0.283735 0.29019 0.288807 
0.287208 0.290888 0.284812 0.284635 0.296185 0.292859 0.292171 0.288039 0.286615 
0.286933 0.303134 0.306102 0.299605 0.297145 0.294333 0.291779 0.291361 0.309483 
0.309226 0.307009 0.303954 0.303166 0.309171 0.300846 0.300018 0.310911 0.31578 
0.315459 0.314767 0.314103 0.314116 0.313256 0.312719 0.312713 
