# vtk DataFile Version 5.1
vtk output
ASCII
DATASET STRUCTURED_GRID
DIMENSIONS 30 30 55
POINTS 49500 float
0 0 0.5 -0.003 0 0.5 -0.00604287 0 0.5 
-0.0091721 0 0.5 -0.0124324 0 0.5 -0.0158704 0 0.5 
-0.0195351 0 0.5 -0.0234791 0 0.5 -0.0277585 0 0.5 
-0.0324346 0 0.5 -0.0375743 0 0.5 -0.0432509 0 0.5 
-0.0495456 0 0.5 -0.0565483 0 0.5 -0.0643591 0 0.5 
-0.0730896 0 0.5 -0.0828646 0 0.5 -0.0938238 0 0.5 
-0.106124 0 0.5 -0.11994 0 0.5 -0.135471 0 0.5 
-0.152937 0 0.5 -0.172589 0 0.5 -0.194708 0 0.5 
-0.219609 0 0.5 -0.247648 0 0.5 -0.279226 0 0.5 
-0.314795 0 0.5 -0.354862 0 0.5 -0.4 0 0.5 
0 0.0002 0.5 -0.003 0.0002 0.5 -0.00604287 0.0002 0.5 
-0.0091721 0.0002 0.5 -0.0124324 0.0002 0.5 -0.0158704 0.0002 0.5 
-0.0195351 0.0002 0.5 -0.0234791 0.0002 0.5 -0.0277585 0.0002 0.5 
-0.0324346 0.0002 0.5 -0.0375743 0.0002 0.5 -0.0432509 0.0002 0.5 
-0.0495456 0.0002 0.5 -0.0565483 0.0002 0.5 -0.0643591 0.0002 0.5 
-0.0730896 0.0002 0.5 -0.0828646 0.0002 0.5 -0.0938238 0.0002 0.5 
-0.106124 0.0002 0.5 -0.11994 0.0002 0.5 -0.135471 0.0002 0.5 
-0.152937 0.0002 0.5 -0.172589 0.0002 0.5 -0.194708 0.0002 0.5 
-0.219609 0.0002 0.5 -0.247648 0.0002 0.5 -0.279226 0.0002 0.5 
-0.314795 0.0002 0.5 -0.354862 0.0002 0.5 -0.4 0.0002 0.5 
0 0.000403085 0.5 -0.003 0.000403085 0.5 -0.00604287 0.000403085 0.5 
-0.0091721 0.000403085 0.5 -0.0124324 0.000403085 0.5 -0.0158704 0.000403085 0.5 
-0.0195351 0.000403085 0.5 -0.0234791 0.000403085 0.5 -0.0277585 0.000403085 0.5 
-0.0324346 0.000403085 0.5 -0.0375743 0.000403085 0.5 -0.0432509 0.000403085 0.5 
-0.0495456 0.000403085 0.5 -0.0565483 0.000403085 0.5 -0.0643591 0.000403085 0.5 
-0.0730896 0.000403085 0.5 -0.0828646 0.000403085 0.5 -0.0938238 0.000403085 0.5 
-0.106124 0.000403085 0.5 -0.11994 0.000403085 0.5 -0.135471 0.000403085 0.5 
-0.152937 0.000403085 0.5 -0.172589 0.000403085 0.5 -0.194708 0.000403085 0.5 
-0.219609 0.000403085 0.5 -0.247648 0.000403085 0.5 -0.279226 0.000403085 0.5 
-0.314795 0.000403085 0.5 -0.354862 0.000403085 0.5 -0.4 0.000403085 0.5 
0 0.000608657 0.5 -0.003 0.000608657 0.5 -0.00604287 0.000608657 0.5 
-0.0091721 0.000608657 0.5 -0.0124324 0.000608657 0.5 -0.0158704 0.000608657 0.5 
-0.0195351 0.000608657 0.5 -0.0234791 0.000608657 0.5 -0.0277585 0.000608657 0.5 
-0.0324346 0.000608657 0.5 -0.0375743 0.000608657 0.5 -0.0432509 0.000608657 0.5 
-0.0495456 0.000608657 0.5 -0.0565483 0.000608657 0.5 -0.0643591 0.000608657 0.5 
-0.0730896 0.000608657 0.5 -0.0828646 0.000608657 0.5 -0.0938238 0.000608657 0.5 
-0.106124 0.000608657 0.5 -0.11994 0.000608657 0.5 -0.135471 0.000608657 0.5 
-0.152937 0.000608657 0.5 -0.172589 0.000608657 0.5 -0.194708 0.000608657 0.5 
-0.219609 0.000608657 0.5 -0.247648 0.000608657 0.5 -0.279226 0.000608657 0.5 
-0.314795 0.000608657 0.5 -0.354862 0.000608657 0.5 -0.4 0.000608657 0.5 
0 0.000816087 0.5 -0.003 0.000816087 0.5 -0.00604287 0.000816087 0.5 
-0.0091721 0.000816087 0.5 -0.0124324 0.000816087 0.5 -0.0158704 0.000816087 0.5 
-0.0195351 0.000816087 0.5 -0.0234791 0.000816087 0.5 -0.0277585 0.000816087 0.5 
-0.0324346 0.000816087 0.5 -0.0375743 0.000816087 0.5 -0.0432509 0.000816087 0.5 
-0.0495456 0.000816087 0.5 -0.0565483 0.000816087 0.5 -0.0643591 0.000816087 0.5 
-0.0730896 0.000816087 0.5 -0.0828646 0.000816087 0.5 -0.0938238 0.000816087 0.5 
-0.106124 0.000816087 0.5 -0.11994 0.000816087 0.5 -0.135471 0.000816087 0.5 
-0.152937 0.000816087 0.5 -0.172589 0.000816087 0.5 -0.194708 0.000816087 0.5 
-0.219609 0.000816087 0.5 -0.247648 0.000816087 0.5 -0.279226 0.000816087 0.5 
-0.314795 0.000816087 0.5 -0.354862 0.000816087 0.5 -0.4 0.000816087 0.5 
0 0.00102472 0.5 -0.003 0.00102472 0.5 -0.00604287 0.00102472 0.5 
-0.0091721 0.00102472 0.5 -0.0124324 0.00102472 0.5 -0.0158704 0.00102472 0.5 
-0.0195351 0.00102472 0.5 -0.0234791 0.00102472 0.5 -0.0277585 0.00102472 0.5 
-0.0324346 0.00102472 0.5 -0.0375743 0.00102472 0.5 -0.0432509 0.00102472 0.5 
-0.0495456 0.00102472 0.5 -0.0565483 0.00102472 0.5 -0.0643591 0.00102472 0.5 
-0.0730896 0.00102472 0.5 -0.0828646 0.00102472 0.5 -0.0938238 0.00102472 0.5 
-0.106124 0.00102472 0.5 -0.11994 0.00102472 0.5 -0.135471 0.00102472 0.5 
-0.152937 0.00102472 0.5 -0.172589 0.00102472 0.5 -0.194708 0.00102472 0.5 
-0.219609 0.00102472 0.5 -0.247648 0.00102472 0.5 -0.279226 0.00102472 0.5 
-0.314795 0.00102472 0.5 -0.354862 0.00102472 0.5 -0.4 0.00102472 0.5 
0 0.00123389 0.5 -0.003 0.00123389 0.5 -0.00604287 0.00123389 0.5 
-0.0091721 0.00123389 0.5 -0.0124324 0.00123389 0.5 -0.0158704 0.00123389 0.5 
-0.0195351 0.00123389 0.5 -0.0234791 0.00123389 0.5 -0.0277585 0.00123389 0.5 
-0.0324346 0.00123389 0.5 -0.0375743 0.00123389 0.5 -0.0432509 0.00123389 0.5 
-0.0495456 0.00123389 0.5 -0.0565483 0.00123389 0.5 -0.0643591 0.00123389 0.5 
-0.0730896 0.00123389 0.5 -0.0828646 0.00123389 0.5 -0.0938238 0.00123389 0.5 
-0.106124 0.00123389 0.5 -0.11994 0.00123389 0.5 -0.135471 0.00123389 0.5 
-0.152937 0.00123389 0.5 -0.172589 0.00123389 0.5 -0.194708 0.00123389 0.5 
-0.219609 0.00123389 0.5 -0.247648 0.00123389 0.5 -0.279226 0.00123389 0.5 
-0.314795 0.00123389 0.5 -0.354862 0.00123389 0.5 -0.4 0.00123389 0.5 
0 0.00144293 0.5 -0.003 0.00144293 0.5 -0.00604287 0.00144293 0.5 
-0.0091721 0.00144293 0.5 -0.0124324 0.00144293 0.5 -0.0158704 0.00144293 0.5 
-0.0195351 0.00144293 0.5 -0.0234791 0.00144293 0.5 -0.0277585 0.00144293 0.5 
-0.0324346 0.00144293 0.5 -0.0375743 0.00144293 0.5 -0.0432509 0.00144293 0.5 
-0.0495456 0.00144293 0.5 -0.0565483 0.00144293 0.5 -0.0643591 0.00144293 0.5 
-0.0730896 0.00144293 0.5 -0.0828646 0.00144293 0.5 -0.0938238 0.00144293 0.5 
-0.106124 0.00144293 0.5 -0.11994 0.00144293 0.5 -0.135471 0.00144293 0.5 
-0.152937 0.00144293 0.5 -0.172589 0.00144293 0.5 -0.194708 0.00144293 0.5 
-0.219609 0.00144293 0.5 -0.247648 0.00144293 0.5 -0.279226 0.00144293 0.5 
-0.314795 0.00144293 0.5 -0.354862 0.00144293 0.5 -0.4 0.00144293 0.5 
0 0.00165115 0.5 -0.003 0.00165115 0.5 -0.00604287 0.00165115 0.5 
-0.0091721 0.00165115 0.5 -0.0124324 0.00165115 0.5 -0.0158704 0.00165115 0.5 
-0.0195351 0.00165115 0.5 -0.0234791 0.00165115 0.5 -0.0277585 0.00165115 0.5 
-0.0324346 0.00165115 0.5 -0.0375743 0.00165115 0.5 -0.0432509 0.00165115 0.5 
-0.0495456 0.00165115 0.5 -0.0565483 0.00165115 0.5 -0.0643591 0.00165115 0.5 
-0.0730896 0.00165115 0.5 -0.0828646 0.00165115 0.5 -0.0938238 0.00165115 0.5 
-0.106124 0.00165115 0.5 -0.11994 0.00165115 0.5 -0.135471 0.00165115 0.5 
-0.152937 0.00165115 0.5 -0.172589 0.00165115 0.5 -0.194708 0.00165115 0.5 
-0.219609 0.00165115 0.5 -0.247648 0.00165115 0.5 -0.279226 0.00165115 0.5 
-0.314795 0.00165115 0.5 -0.354862 0.00165115 0.5 -0.4 0.00165115 0.5 
0 0.00185789 0.5 -0.003 0.00185789 0.5 -0.00604287 0.00185789 0.5 
-0.0091721 0.00185789 0.5 -0.0124324 0.00185789 0.5 -0.0158704 0.00185789 0.5 
-0.0195351 0.00185789 0.5 -0.0234791 0.00185789 0.5 -0.0277585 0.00185789 0.5 
-0.0324346 0.00185789 0.5 -0.0375743 0.00185789 0.5 -0.0432509 0.00185789 0.5 
-0.0495456 0.00185789 0.5 -0.0565483 0.00185789 0.5 -0.0643591 0.00185789 0.5 
-0.0730896 0.00185789 0.5 -0.0828646 0.00185789 0.5 -0.0938238 0.00185789 0.5 
-0.106124 0.00185789 0.5 -0.11994 0.00185789 0.5 -0.135471 0.00185789 0.5 
-0.152937 0.00185789 0.5 -0.172589 0.00185789 0.5 -0.194708 0.00185789 0.5 
-0.219609 0.00185789 0.5 -0.247648 0.00185789 0.5 -0.279226 0.00185789 0.5 
-0.314795 0.00185789 0.5 -0.354862 0.00185789 0.5 -0.4 0.00185789 0.5 
0 0.00206252 0.5 -0.003 0.00206252 0.5 -0.00604287 0.00206252 0.5 
-0.0091721 0.00206252 0.5 -0.0124324 0.00206252 0.5 -0.0158704 0.00206252 0.5 
-0.0195351 0.00206252 0.5 -0.0234791 0.00206252 0.5 -0.0277585 0.00206252 0.5 
-0.0324346 0.00206252 0.5 -0.0375743 0.00206252 0.5 -0.0432509 0.00206252 0.5 
-0.0495456 0.00206252 0.5 -0.0565483 0.00206252 0.5 -0.0643591 0.00206252 0.5 
-0.0730896 0.00206252 0.5 -0.0828646 0.00206252 0.5 -0.0938238 0.00206252 0.5 
-0.106124 0.00206252 0.5 -0.11994 0.00206252 0.5 -0.135471 0.00206252 0.5 
-0.152937 0.00206252 0.5 -0.172589 0.00206252 0.5 -0.194708 0.00206252 0.5 
-0.219609 0.00206252 0.5 -0.247648 0.00206252 0.5 -0.279226 0.00206252 0.5 
-0.314795 0.00206252 0.5 -0.354862 0.00206252 0.5 -0.4 0.00206252 0.5 
0 0.00226441 0.5 -0.003 0.00226441 0.5 -0.00604287 0.00226441 0.5 
-0.0091721 0.00226441 0.5 -0.0124324 0.00226441 0.5 -0.0158704 0.00226441 0.5 
-0.0195351 0.00226441 0.5 -0.0234791 0.00226441 0.5 -0.0277585 0.00226441 0.5 
-0.0324346 0.00226441 0.5 -0.0375743 0.00226441 0.5 -0.0432509 0.00226441 0.5 
-0.0495456 0.00226441 0.5 -0.0565483 0.00226441 0.5 -0.0643591 0.00226441 0.5 
-0.0730896 0.00226441 0.5 -0.0828646 0.00226441 0.5 -0.0938238 0.00226441 0.5 
-0.106124 0.00226441 0.5 -0.11994 0.00226441 0.5 -0.135471 0.00226441 0.5 
-0.152937 0.00226441 0.5 -0.172589 0.00226441 0.5 -0.194708 0.00226441 0.5 
-0.219609 0.00226441 0.5 -0.247648 0.00226441 0.5 -0.279226 0.00226441 0.5 
-0.314795 0.00226441 0.5 -0.354862 0.00226441 0.5 -0.4 0.00226441 0.5 
0 0.00246298 0.5 -0.003 0.00246298 0.5 -0.00604287 0.00246298 0.5 
-0.0091721 0.00246298 0.5 -0.0124324 0.00246298 0.5 -0.0158704 0.00246298 0.5 
-0.0195351 0.00246298 0.5 -0.0234791 0.00246298 0.5 -0.0277585 0.00246298 0.5 
-0.0324346 0.00246298 0.5 -0.0375743 0.00246298 0.5 -0.0432509 0.00246298 0.5 
-0.0495456 0.00246298 0.5 -0.0565483 0.00246298 0.5 -0.0643591 0.00246298 0.5 
-0.0730896 0.00246298 0.5 -0.0828646 0.00246298 0.5 -0.0938238 0.00246298 0.5 
-0.106124 0.00246298 0.5 -0.11994 0.00246298 0.5 -0.135471 0.00246298 0.5 
-0.152937 0.00246298 0.5 -0.172589 0.00246298 0.5 -0.194708 0.00246298 0.5 
-0.219609 0.00246298 0.5 -0.247648 0.00246298 0.5 -0.279226 0.00246298 0.5 
-0.314795 0.00246298 0.5 -0.354862 0.00246298 0.5 -0.4 0.00246298 0.5 
0 0.00265769 0.5 -0.003 0.00265769 0.5 -0.00604287 0.00265769 0.5 
-0.0091721 0.00265769 0.5 -0.0124324 0.00265769 0.5 -0.0158704 0.00265769 0.5 
-0.0195351 0.00265769 0.5 -0.0234791 0.00265769 0.5 -0.0277585 0.00265769 0.5 
-0.0324346 0.00265769 0.5 -0.0375743 0.00265769 0.5 -0.0432509 0.00265769 0.5 
[...]
POINT_DATA 49500
FIELD FieldData 5
pressure 1 49500 float
0.178573 0.178573 0.178573 0.178573 0.178573 0.178573 0.178573 0.178573 0.178573 
0.178573 0.178573 0.178573 0.178573 0.178573 0.178573 0.178573 0.178573 0.178573 
0.178573 0.178573 0.178573 0.178573 0.178573 0.178573 0.178573 0.178573 0.178573 
0.178573 0.178573 0.178573 0.252997 0.178596 0.178559 0.178573 0.17857 0.178573 
0.178573 0.178573 0.178573 0.178573 0.178573 0.178573 0.178573 0.178573 0.178573 
0.178573 0.178573 0.178573 0.178573 0.178573 0.178573 0.178573 0.178573 0.178573 
0.178573 0.178573 0.178573 0.178573 0.178573 0.178573 0.250506 0.178606 0.178558 
0.178573 0.178571 0.178573 0.178573 0.178573 0.178573 0.178573 0.178573 0.178573 
0.178573 0.178573 0.178573 0.178573 0.178573 0.178573 0.178573 0.178573 0.178573 
0.178573 0.178573 0.178573 0.178573 0.178573 0.178573 0.178573 0.178573 0.178573 
0.24827 0.178618 0.178559 0.178572 0.178572 0.178572 0.178573 0.178573 0.178573 
0.178573 0.178573 0.178573 0.178573 0.178573 0.178573 0.178573 0.178573 0.178573 
0.178573 0.178573 0.178573 0.178573 0.178573 0.178573 0.178573 0.178573 0.178573 
0.178573 0.178573 0.178573 0.246077 0.178633 0.17856 0.178572 0.178572 0.178572 
0.178573 0.178573 0.178573 0.178573 0.178573 0.178573 0.178573 0.178573 0.178573 
0.178573 0.178573 0.178573 0.178573 0.178573 0.178573 0.178573 0.178573 0.178573 
0.178573 0.178573 0.178573 0.178573 0.178573 0.178573 0.243882 0.178648 0.17856 
0.178572 0.178573 0.178572 0.178573 0.178573 0.178573 0.178573 0.178573 0.178573 
0.178573 0.178573 0.178573 0.178573 0.178573 0.178573 0.178573 0.178573 0.178573 
0.178573 0.178573 0.178573 0.178573 0.178573 0.178573 0.178573 0.178573 0.178573 
0.241573 0.178664 0.17856 0.178571 0.178574 0.178572 0.178573 0.178573 0.178573 
0.178573 0.178573 0.178573 0.178573 0.178573 0.178573 0.178573 0.178573 0.178573 
0.178573 0.178573 0.178573 0.178573 0.178573 0.178573 0.178573 0.178573 0.178573 
0.178573 0.178573 0.178573 0.239214 0.17868 0.17856 0.178571 0.178574 0.178571 
0.178573 0.178573 0.178573 0.178573 0.178573 0.178573 0.178573 0.178573 0.178573 
0.178573 0.178573 0.178573 0.178573 0.178573 0.178573 0.178573 0.178573 0.178573 
0.178573 0.178573 0.178573 0.178573 0.178573 0.178573 0.236798 0.178695 0.178559 
0.178571 0.178575 0.178571 0.178573 0.178573 0.178573 0.178573 0.178573 0.178573 
0.178573 0.178573 0.178573 0.178573 0.178573 0.178573 0.178573 0.178573 0.178573 
0.178573 0.178573 0.178573 0.178573 0.178573 0.178573 0.178573 0.178573 0.178573 
0.234284 0.178708 0.178557 0.178571 0.178575 0.178571 0.178573 0.178573 0.178573 
0.178573 0.178573 0.178573 0.178573 0.178573 0.178573 0.178573 0.178573 0.178573 
0.178573 0.178573 0.178573 0.178573 0.178573 0.178573 0.178573 0.178573 0.178573 
0.178573 0.178573 0.178573 0.23164 0.178721 0.178556 0.178571 0.178576 0.178571 
0.178574 0.178573 0.178573 0.178573 0.178573 0.178573 0.178573 0.178573 0.178573 
0.178573 0.178573 0.178573 0.178573 0.178573 0.178573 0.178573 0.178573 0.178573 
0.178573 0.178573 0.178573 0.178573 0.178573 0.178573 0.228848 0.178731 0.178555 
0.178572 0.178576 0.178571 0.178574 0.178573 0.178573 0.178573 0.178573 0.178573 
0.178573 0.178573 0.178573 0.178573 0.178573 0.178573 0.178573 0.178573 0.178573 
0.178573 0.178573 0.178573 0.178573 0.178573 0.178573 0.178573 0.178573 0.178573 
0.225901 0.178741 0.178553 0.178572 0.178576 0.178571 0.178574 0.178573 0.178573 
0.178573 0.178573 0.178573 0.178573 0.178573 0.178573 0.178573 0.178573 0.178573 
0.178573 0.178573 0.178573 0.178573 0.178573 0.178573 0.178573 0.178573 0.178573 
0.178573 0.178573 0.178573 0.222792 0.178754 0.178552 0.178573 0.178576 0.178571 
0.178574 0.178573 0.178573 0.178573 0.178573 0.178573 0.178573 0.178573 0.178573 
0.178573 0.178573 0.178573 0.178573 0.178573 0.178573 0.178573 0.178573 0.178573 
0.178573 0.178573 0.178573 0.178573 0.178573 0.178573 0.219523 0.178765 0.17855 
0.178573 0.178576 0.178571 0.178574 0.178573 0.178573 0.178573 0.178573 0.178573 
0.178573 0.178573 0.178573 0.178573 0.178573 0.178573 0.178573 0.178573 0.178573 
0.178573 0.178573 0.178573 0.178573 0.178573 0.178573 0.178573 0.178573 0.178573 
0.216102 0.178763 0.17855 0.178574 0.178576 0.178571 0.178574 0.178573 0.178573 
0.178573 0.178573 0.178573 0.178573 0.178573 0.178573 0.178573 0.178573 0.178573 
0.178573 0.178573 0.178573 0.178573 0.178573 0.178573 0.178573 0.178573 0.178573 
0.178573 0.178573 0.178573 0.212546 0.178754 0.17855 0.178574 0.178576 0.178571 
0.178574 0.178573 0.178573 0.178573 0.178573 0.178573 0.178573 0.178573 0.178573 
0.178573 0.178573 0.178573 0.178573 0.178573 0.178573 0.178573 0.178573 0.178573 
0.178573 0.178573 0.178573 0.178573 0.178573 0.178573 0.208852 0.178749 0.17855 
0.178575 0.178575 0.178571 0.178574 0.178573 0.178573 0.178573 0.178573 0.178573 
0.178573 0.178573 0.178573 0.178573 0.178573 0.178573 0.178573 0.178573 0.178573 
0.178573 0.178573 0.178573 0.178573 0.178573 0.178573 0.178573 0.178573 0.178573 
0.205017 0.178744 0.17855 0.178576 0.178575 0.178571 0.178574 0.178573 0.178573 
0.178573 0.178573 0.178573 0.178573 0.178573 0.178573 0.178573 0.178573 0.178573 
0.178573 0.178573 0.178573 0.178573 0.178573 0.178573 0.178573 0.178573 0.178573 
0.178573 0.178573 0.178573 0.201051 0.17874 0.178551 0.178576 0.178575 0.178571 
0.178574 0.178573 0.178573 0.178573 0.178573 0.178573 0.178573 0.178573 0.178573 
0.178573 0.178573 0.178573 0.178573 0.178573 0.178573 0.178573 0.178573 0.178573 
0.178573 0.178573 0.178573 0.178573 0.178573 0.178573 0.197038 0.178735 0.178551 
0.178577 0.178574 0.178571 0.178574 0.178573 0.178573 0.178573 0.178573 0.178573 
0.178573 0.178573 0.178573 0.178573 0.178573 0.178573 0.178573 0.178573 0.178573 
0.178573 0.178573 0.178573 0.178573 0.178573 0.178573 0.178573 0.178573 0.178573 
0.193189 0.17873 0.178551 0.178577 0.178574 0.178571 0.178574 0.178573 0.178573 
0.178573 0.178573 0.178573 0.178573 0.178573 0.178573 0.178573 0.178573 0.178573 
0.178573 0.178573 0.178573 0.178573 0.178573 0.178573 0.178573 0.178573 0.178573 
0.178573 0.178573 0.178573 0.189798 0.178724 0.178551 0.178578 0.178574 0.178571 
0.178574 0.178573 0.178573 0.178573 0.178573 0.178573 0.178573 0.178573 0.178573 
0.178573 0.178573 0.178573 0.178573 0.178573 0.178573 0.178573 0.178573 0.178573 
0.178573 0.178573 0.178573 0.178573 0.178573 0.178573 0.187068 0.178717 0.178552 
0.178579 0.178573 0.178572 0.178574 0.178573 0.178573 0.178573 0.178573 0.178573 
0.178573 0.178573 0.178573 0.178573 0.178573 0.178573 0.178573 0.178573 0.178573 
0.178573 0.178573 0.178573 0.178573 0.178573 0.178573 0.178573 0.178573 0.178573 
0.185035 0.178711 0.178552 0.178579 0.178573 0.178572 0.178574 0.178573 0.178573 
0.178573 0.178573 0.178573 0.178573 0.178573 0.178573 0.178573 0.178573 0.178573 
0.178573 0.178573 0.178573 0.178573 0.178573 0.178573 0.178573 0.178573 0.178573 
0.178573 0.178573 0.178573 0.183603 0.178704 0.178552 0.17858 0.178572 0.178572 
0.178574 0.178573 0.178573 0.178573 0.178573 0.178573 0.178573 0.178573 0.178573 
0.178573 0.178573 0.178573 0.178573 0.178573 0.178573 0.178573 0.178573 0.178573 
0.178573 0.178573 0.178573 0.178573 0.178573 0.178573 0.182612 0.178698 0.178552 
0.17858 0.178572 0.178572 0.178574 0.178573 0.178573 0.178573 0.178573 0.178573 
0.178573 0.178573 0.178573 0.178573 0.178573 0.178573 0.178573 0.178573 0.178573 
0.178573 0.178573 0.178573 0.178573 0.178573 0.178573 0.178573 0.178573 0.178573 
0.18195 0.178692 0.178552 0.178581 0.178572 0.178572 0.178574 0.178573 0.178573 
0.178573 0.178573 0.178573 0.178573 0.178573 0.178573 0.178573 0.178573 0.178573 
0.178573 0.178573 0.178573 0.178573 0.178573 0.178573 0.178573 0.178573 0.178573 
0.178573 0.178573 0.178573 0.181521 0.178686 0.178553 0.178581 0.178571 0.178572 
0.178574 0.178573 0.178573 0.178573 0.178573 0.178573 0.178573 0.178573 0.178573 
0.178573 0.178573 0.178573 0.178573 0.178573 0.178573 0.178573 0.178573 0.178573 
0.178573 0.178573 0.178573 0.178573 0.178573 0.178573 0.181297 0.178687 0.178551 
0.178582 0.178571 0.178572 0.178573 0.178573 0.178573 0.178573 0.178573 0.178573 
0.178573 0.178573 0.178573 0.178573 0.178573 0.178573 0.178573 0.178573 0.178573 
0.178573 0.178573 0.178573 0.178573 0.178573 0.178573 0.178573 0.178573 0.178573 
0.252997 0.178573 0.178573 0.178573 0.178573 0.178573 0.178573 0.178573 0.178573 
0.178573 0.178573 0.178573 0.178573 0.178573 0.178573 0.178573 0.178573 0.178573 
0.178573 0.178573 0.178573 0.178573 0.178573 0.178573 0.178573 0.178573 0.178573 
0.178573 0.178573 0.178573 0.252997 0.1786 0.178576 0.178572 0.178574 0.178572 
0.178573 0.178573 0.178573 0.178573 0.178573 0.178573 0.178573 0.178573 0.178573 
0.178573 0.178573 0.178573 0.178573 0.178573 0.178573 0.178573 0.178573 0.178573 
0.178573 0.178573 0.178573 0.178573 0.178573 0.178573 0.250506 0.178543 0.178581 
0.17857 0.178574 0.178571 0.178573 0.178573 0.178573 0.178573 0.178573 0.178573 
0.178573 0.178573 0.178573 0.178573 0.178573 0.178573 0.178573 0.178573 0.178573 
0.178573 0.178573 0.178573 0.178573 0.178573 0.178573 0.178573 0.178573 0.178573 
0.24827 0.178586 0.178583 0.178569 0.178574 0.178571 0.178573 0.178573 0.178573 
0.178573 0.178573 0.178573 0.178573 0.178573 0.178573 0.178573 0.178573 0.178573 
0.178573 0.178573 0.178573 0.178573 0.178573 0.178573 0.178573 0.178573 0.178573 
0.178573 0.178573 0.178573 0.246077 0.17862 0.178583 0.178568 0.178575 0.178571 
0.178573 0.178573 0.178573 0.178573 0.178573 0.178573 0.178573 0.178573 0.178573 
0.178573 0.178573 0.178573 0.178573 0.178573 0.178573 0.178573 0.178573 0.178573 
0.178573 0.178573 0.178573 0.178573 0.178573 0.178573 0.243882 0.178652 0.178581 
0.178567 0.178575 0.178571 0.178573 0.178573 0.178573 0.178573 0.178573 0.178573 
0.178573 0.178573 0.178573 0.178573 0.178573 0.178573 0.178573 0.178573 0.178573 
0.178573 0.178573 0.178573 0.178573 0.178573 0.178573 0.178573 0.178573 0.178573 
0.241573 0.178677 0.178579 0.178567 0.178575 0.178571 0.178573 0.178573 0.178573 
0.178573 0.178573 0.178573 0.178573 0.178573 0.178573 0.178573 0.178573 0.178573 
0.178573 0.178573 0.178573 0.178573 0.178573 0.178573 0.178573 0.178573 0.178573 
0.178573 0.178573 0.178573 0.239214 0.178699 0.178575 0.178568 0.178575 0.178571 
0.178573 0.178573 0.178573 0.178573 0.178573 0.178573 0.178573 0.178573 0.178573 
0.178573 0.178573 0.178573 0.178573 0.178573 0.178573 0.178573 0.178573 0.178573 
0.178573 0.178573 0.178573 0.178573 0.178573 0.178573 0.236798 0.178718 0.178571 
0.178568 0.178576 0.178571 0.178573 0.178573 0.178573 0.178573 0.178573 0.178573 
0.178573 0.178573 0.178573 0.178573 0.178573 0.178573 0.178573 0.178573 0.178573 
0.178573 0.178573 0.178573 0.178573 0.178573 0.178573 0.178573 0.178573 0.178573 
0.234284 0.178732 0.178567 0.17857 0.178575 0.178571 0.178573 0.178573 0.178573 
0.178573 0.178573 0.178573 0.178573 0.178573 0.178573 0.178573 0.178573 0.178573 
0.178573 0.178573 0.178573 0.178573 0.178573 0.178573 0.178573 0.178573 0.178573 
0.178573 0.178573 0.178573 0.23164 0.178743 0.178563 0.178571 0.178575 0.178571 
0.178573 0.178573 0.178573 0.178573 0.178573 0.178573 0.178573 0.178573 0.178573 
0.178573 0.178573 0.178573 0.178573 0.178573 0.178573 0.178573 0.178573 0.178573 
0.178573 0.178573 0.178573 0.178573 0.178573 0.178573 0.228848 0.17875 0.178559 
0.178572 0.178575 0.178571 0.178573 0.178573 0.178573 0.178573 0.178573 0.178573 
0.178573 0.178573 0.178573 0.178573 0.178573 0.178573 0.178573 0.178573 0.178573 
0.178573 0.178573 0.178573 0.178573 0.178573 0.178573 0.178573 0.178573 0.178573 
0.225901 0.178754 0.178555 0.178574 0.178575 0.178571 0.178574 0.178573 0.178573 
0.178573 0.178573 0.178573 0.178573 0.178573 0.178573 0.178573 0.178573 0.178573 
0.178573 0.178573 0.178573 0.178573 0.178573 0.178573 0.178573 0.178573 0.178573 
0.178573 0.178573 0.178573 0.222792 0.178755 0.178552 0.178576 0.178574 0.178571 
0.178574 0.178573 0.178573 0.178573 0.178573 0.178573 0.178573 0.178573 0.178573 
0.178573 0.178573 0.178573 0.178573 0.178573 0.178573 0.178573 0.178573 0.178573 
0.178573 0.178573 0.178573 0.178573 0.178573 0.178573 0.219523 0.178753 0.178549 
0.178577 0.178574 0.178571 0.178574 0.178573 0.178573 0.178573 0.178573 0.178573 
0.178573 0.178573 0.178573 0.178573 0.178573 0.178573 0.178573 0.178573 0.178573 
0.178573 0.178573 0.178573 0.178573 0.178573 0.178573 0.178573 0.178573 0.178573 
0.216102 0.17875 0.178547 0.178579 0.178573 0.178571 0.178574 0.178573 0.178573 
0.178573 0.178573 0.178573 0.178573 0.178573 0.178573 0.178573 0.178573 0.178573 
0.178573 0.178573 0.178573 0.178573 0.178573 0.178573 0.178573 0.178573 0.178573 
0.178573 0.178573 0.178573 0.212546 0.178746 0.178545 0.17858 0.178573 0.178571 
0.178574 0.178573 0.178573 0.178573 0.178573 0.178573 0.178573 0.178573 0.178573 
0.178573 0.178573 0.178573 0.178573 0.178573 0.178573 0.178573 0.178573 0.178573 
0.178573 0.178573 0.178573 0.178573 0.178573 0.178573 0.208852 0.178741 0.178543 
0.178582 0.178572 0.178572 0.178574 0.178573 0.178573 0.178573 0.178573 0.178573 
0.178573 0.178573 0.178573 0.178573 0.178573 0.178573 0.178573 0.178573 0.178573 
0.178573 0.178573 0.178573 0.178573 0.178573 0.178573 0.178573 0.178573 0.178573 
0.205017 0.178736 0.178542 0.178583 0.178572 0.178572 0.178574 0.178573 0.178573 
0.178573 0.178573 0.178573 0.178573 0.178573 0.178573 0.178573 0.178573 0.178573 
0.178573 0.178573 0.178573 0.178573 0.178573 0.178573 0.178573 0.178573 0.178573 
0.178573 0.178573 0.178573 0.201051 0.178732 0.178541 0.178584 0.178571 0.178572 
0.178573 0.178573 0.178573 0.178573 0.178573 0.178573 0.178573 0.178573 0.178573 
0.178573 0.178573 0.178573 0.178573 0.178573 0.178573 0.178573 0.178573 0.178573 
0.178573 0.178573 0.178573 0.178573 0.178573 0.178573 0.197038 0.178728 0.178541 
0.178585 0.17857 0.178572 0.178573 0.178573 0.178573 0.178573 0.178573 0.178573 
0.178573 0.178573 0.178573 0.178573 0.178573 0.178573 0.178573 0.178573 0.178573 
0.178573 0.178573 0.178573 0.178573 0.178573 0.178573 0.178573 0.178573 0.178573 
0.193189 0.178723 0.17854 0.178586 0.17857 0.178572 0.178573 0.178573 0.178573 
0.178573 0.178573 0.178573 0.178573 0.178573 0.178573 0.178573 0.178573 0.178573 
0.178573 0.178573 0.178573 0.178573 0.178573 0.178573 0.178573 0.178573 0.178573 
0.178573 0.178573 0.178573 0.189798 0.178717 0.17854 0.178587 0.178569 0.178573 
0.178573 0.178573 0.178573 0.178573 0.178573 0.178573 0.178573 0.178573 0.178573 
0.178573 0.178573 0.178573 0.178573 0.178573 0.178573 0.178573 0.178573 0.178573 
0.178573 0.178573 0.178573 0.178573 0.178573 0.178573 0.187068 0.178709 0.178539 
0.178588 0.178569 0.178573 0.178573 0.178573 0.178573 0.178573 0.178573 0.178573 
0.178573 0.178573 0.178573 0.178573 0.178573 0.178573 0.178573 0.178573 0.178573 
0.178573 0.178573 0.178573 0.178573 0.178573 0.178573 0.178573 0.178573 0.178573 
0.185035 0.178701 0.178539 0.178589 0.178568 0.178573 0.178573 0.178573 0.178573 
0.178573 0.178573 0.178573 0.178573 0.178573 0.178573 0.178573 0.178573 0.178573 
0.178573 0.178573 0.178573 0.178573 0.178573 0.178573 0.178573 0.178573 0.178573 
0.178573 0.178573 0.178573 0.183603 0.178692 0.178539 0.17859 0.178568 0.178573 
0.178573 0.178573 0.178573 0.178573 0.178573 0.178573 0.178573 0.178573 0.178573 
0.178573 0.178573 0.178573 0.178573 0.178573 0.178573 0.178573 0.178573 0.178573 
0.178573 0.178573 0.178573 0.178573 0.178573 0.178573 0.182612 0.178684 0.178539 
0.17859 0.178567 0.178574 0.178573 0.178573 0.178573 0.178573 0.178573 0.178573 
0.178573 0.178573 0.178573 0.178573 0.178573 0.178573 0.178573 0.178573 0.178573 
0.178573 0.178573 0.178573 0.178573 0.178573 0.178573 0.178573 0.178573 0.178573 
0.18195 0.178675 0.178539 0.178591 0.178567 0.178574 0.178573 0.178573 0.178573 
0.178573 0.178573 0.178573 0.178573 0.178573 0.178573 0.178573 0.178573 0.178573 
0.178573 0.178573 0.178573 0.178573 0.178573 0.178573 0.178573 0.178573 0.178573 
0.178573 0.178573 0.178573 0.181521 0.178662 0.17854 0.178591 0.178566 0.178574 
0.178573 0.178573 0.178573 0.178573 0.178573 0.178573 0.178573 0.178573 0.178573 
0.178573 0.178573 0.178573 0.178573 0.178573 0.178573 0.178573 0.178573 0.178573 
0.178573 0.178573 0.178573 0.178573 0.178573 0.178573 0.181297 0.178653 0.178541 
0.178591 0.178566 0.178574 0.178573 0.178573 0.178573 0.178573 0.178573 0.178573 
0.178573 0.178573 0.178573 0.178573 0.178573 0.178573 0.178573 0.178573 0.178573 
0.178573 0.178573 0.178573 0.178573 0.178573 0.178573 0.178573 0.178573 0.178573 
0.253289 0.178573 0.178573 0.178573 0.178573 0.178573 0.178573 0.178573 0.178573 
0.178573 0.178573 0.178573 0.178573 0.178573 0.178573 0.178573 0.178573 0.178573 
0.178573 0.178573 0.178573 0.178573 0.178573 0.178573 0.178573 0.178573 0.178573 
0.178573 0.178573 0.178573 0.253289 0.178606 0.178572 0.178573 0.178573 0.178573 
0.178573 0.178573 0.178573 0.178573 0.178573 0.178573 0.178573 0.178573 0.178573 
0.178573 0.178573 0.178573 0.178573 0.178573 0.178573 0.178573 0.178573 0.178573 
0.178573 0.178573 0.178573 0.178573 0.178573 0.178573 0.250523 0.178546 0.178575 
0.178572 0.178573 0.178573 0.178573 0.178573 0.178573 0.178573 0.178573 0.178573 
0.178573 0.178573 0.178573 0.178573 0.178573 0.178573 0.178573 0.178573 0.178573 
0.178573 0.178573 0.178573 0.178573 0.178573 0.178573 0.178573 0.178573 0.178573 
0.248047 0.178584 0.178576 0.178571 0.178573 0.178573 0.178573 0.178573 0.178573 
0.178573 0.178573 0.178573 0.178573 0.178573 0.178573 0.178573 0.178573 0.178573 
0.178573 0.178573 0.178573 0.178573 0.178573 0.178573 0.178573 0.178573 0.178573 
0.178573 0.178573 0.178573 0.245795 0.178619 0.178575 0.178571 0.178574 0.178573 
0.178573 0.178573 0.178573 0.178573 0.178573 0.178573 0.178573 0.178573 0.178573 
0.178573 0.178573 0.178573 0.178573 0.178573 0.178573 0.178573 0.178573 0.178573 
0.178573 0.178573 0.178573 0.178573 0.178573 0.178573 0.243526 0.178652 0.178573 
0.178571 0.178574 0.178572 0.178573 0.178573 0.178573 0.178573 0.178573 0.178573 
0.178573 0.178573 0.178573 0.178573 0.178573 0.178573 0.178573 0.178573 0.178573 
0.178573 0.178573 0.178573 0.178573 0.178573 0.178573 0.178573 0.178573 0.178573 
0.241169 0.178677 0.17857 0.178572 0.178574 0.178572 0.178573 0.178573 0.178573 
0.178573 0.178573 0.178573 0.178573 0.178573 0.178573 0.178573 0.178573 0.178573 
0.178573 0.178573 0.178573 0.178573 0.178573 0.178573 0.178573 0.178573 0.178573 
0.178573 0.178573 0.178573 0.238722 0.178698 0.178566 0.178573 0.178574 0.178572 
0.178573 0.178573 0.178573 0.178573 0.178573 0.178573 0.178573 0.178573 0.178573 
0.178573 0.178573 0.178573 0.178573 0.178573 0.178573 0.178573 0.178573 0.178573 
0.178573 0.178573 0.178573 0.178573 0.178573 0.178573 0.23616 0.178715 0.178562 
0.178574 0.178574 0.178572 0.178573 0.178573 0.178573 0.178573 0.178573 0.178573 
0.178573 0.178573 0.178573 0.178573 0.178573 0.178573 0.178573 0.178573 0.178573 
0.178573 0.178573 0.178573 0.178573 0.178573 0.178573 0.178573 0.178573 0.178573 
0.233464 0.178727 0.178558 0.178575 0.178574 0.178572 0.178573 0.178572 0.178573 
0.178573 0.178573 0.178573 0.178573 0.178573 0.178573 0.178573 0.178573 0.178573 
0.178573 0.178573 0.178573 0.178573 0.178573 0.178573 0.178573 0.178573 0.178573 
0.178573 0.178573 0.178573 0.230598 0.178736 0.178554 0.178577 0.178574 0.178572 
0.178574 0.178572 0.178573 0.178573 0.178573 0.178573 0.178573 0.178573 0.178573 
0.178573 0.178573 0.178573 0.178573 0.178573 0.178573 0.178573 0.178573 0.178573 
0.178573 0.178573 0.178573 0.178573 0.178573 0.178573 0.227557 0.178742 0.17855 
0.178578 0.178573 0.178572 0.178574 0.178572 0.178573 0.178573 0.178573 0.178573 
0.178573 0.178573 0.178573 0.178573 0.178573 0.178573 0.178573 0.178573 0.178573 
0.178573 0.178573 0.178573 0.178573 0.178573 0.178573 0.178573 0.178573 0.178573 
0.224362 0.178745 0.178547 0.17858 0.178573 0.178572 0.178574 0.178572 0.178573 
0.178573 0.178573 0.178573 0.178573 0.178573 0.178573 0.178573 0.178573 0.178573 
0.178573 0.178573 0.178573 0.178573 0.178573 0.178573 0.178573 0.178573 0.178573 