# vtk DataFile Version 5.1
vtk output
ASCII
DATASET POLYDATA
POINTS 1379 float
1.1368 0.713197 0.5 1.13262 0.717379 0.5 1.12844 0.721557 0.5 
1.12826 0.721743 0.5 1.12424 0.725759 0.5 1.11997 0.730026 0.5 
1.11561 0.734393 0.5 1.1111 0.738898 0.5 1.10641 0.743594 0.5 
1.10147 0.748532 0.5 1.09623 0.753774 0.5 1.09235 0.757653 0.5 
1.0906 0.759395 0.5 1.09163 0.759992 0.498378 1.08453 0.765474 0.5 
1.07789 0.772115 0.5 1.07057 0.77943 0.5 1.06244 0.787561 0.5 
1.05407 0.795934 0.5 1.05333 0.796675 0.5 1.05376 0.796887 0.499353 
1.04302 0.806976 0.5 1.03128 0.818716 0.5 1.0178 0.832203 0.5 
1.01435 0.835647 0.5 1.00217 0.847833 0.5 1.13865 0.714348 0.497 
1.13447 0.71853 0.497 1.13029 0.722707 0.497 1.12707 0.725927 0.497 
1.12609 0.726908 0.497 1.12669 0.72728 0.49603 1.12183 0.731174 0.497 
1.11746 0.735538 0.497 1.11296 0.740038 0.497 1.10827 0.744728 0.497 
1.10334 0.749658 0.497 1.09811 0.75489 0.497 1.0925 0.760499 0.497 
1.09101 0.761985 0.497 1.08644 0.766562 0.497 1.07982 0.773183 0.497 
1.07252 0.780475 0.497 1.06442 0.788579 0.497 1.05534 0.797659 0.497 
1.05264 0.800365 0.497 1.04508 0.807921 0.497 1.03339 0.819614 0.497 
1.01996 0.833044 0.497 1.01288 0.840121 0.497 1.00439 0.848606 0.497 
1.14078 0.715674 0.493548 1.1366 0.719855 0.493548 1.13242 0.724031 0.493548 
1.12822 0.728231 0.493548 1.12569 0.730758 0.493548 1.12396 0.732494 0.493548 
1.12501 0.733146 0.491844 1.1196 0.736855 0.493548 1.1151 0.74135 0.493548 
1.11042 0.746033 0.493548 1.1055 0.750953 0.493548 1.10028 0.756174 0.493548 
1.09468 0.761768 0.493548 1.08947 0.766978 0.493548 1.08864 0.767814 0.493548 
1.08913 0.768093 0.492777 1.08204 0.774413 0.493548 1.07477 0.781678 0.493548 
1.0667 0.78975 0.493548 1.05766 0.798792 0.493548 1.05099 0.805467 0.493548 
1.04744 0.809008 0.493548 1.04953 0.809967 0.490503 1.03581 0.820646 0.493548 
1.02244 0.834011 0.493548 1.01118 0.845269 0.493548 1.00696 0.849495 0.493548 
1.0095 0.850378 0.490122 1.14322 0.717197 0.489579 1.13904 0.721379 0.489579 
1.13487 0.725553 0.489579 1.13067 0.729752 0.489579 1.12641 0.734012 0.489579 
1.12409 0.736333 0.489579 1.12205 0.738369 0.489579 1.12328 0.739127 0.487593 
1.11756 0.742858 0.489579 1.11289 0.747533 0.489579 1.10798 0.752443 0.489579 
1.10277 0.757651 0.489579 1.09719 0.763228 0.489579 1.09117 0.769253 0.489579 
1.08768 0.772745 0.489579 1.08459 0.775827 0.489579 1.0864 0.776826 0.486774 
1.07736 0.783061 0.489579 1.06932 0.791096 0.489579 1.06033 0.800095 0.489579 
1.05016 0.810258 0.489579 1.04908 0.811338 0.489579 1.03859 0.821833 0.489579 
1.0253 0.835124 0.489579 1.0099 0.850518 0.489579 1.14603 0.718946 0.485022 
1.14185 0.723128 0.485022 1.13768 0.727301 0.485022 1.13348 0.731498 0.485022 
1.12922 0.735755 0.485022 1.12487 0.740107 0.485022 1.12223 0.742747 0.485022 
1.12039 0.744589 0.485022 1.1215 0.74527 0.48323 1.11572 0.749255 0.485022 
1.11082 0.754153 0.485022 1.10563 0.759346 0.485022 1.10007 0.764904 0.485022 
1.09407 0.770905 0.485022 1.08753 0.77745 0.485022 1.0856 0.779382 0.485022 
1.08033 0.784649 0.485022 1.08342 0.786302 0.480278 1.07234 0.792642 0.485022 
1.06339 0.801591 0.485022 1.05328 0.811693 0.485022 1.04688 0.818097 0.485022 
1.04178 0.823197 0.485022 1.0448 0.824485 0.480715 1.02858 0.836401 0.485022 
1.01329 0.851692 0.485022 1.14925 0.720952 0.479796 1.15245 0.722945 0.474605 
1.14507 0.725133 0.479796 1.1409 0.729305 0.479796 1.1367 0.733501 0.479796 
1.13245 0.737754 0.479796 1.1281 0.742101 0.479796 1.12363 0.746575 0.479796 
1.12007 0.750135 0.479796 1.11897 0.75123 0.479796 1.11963 0.751629 0.478741 
1.11409 0.756115 0.479796 1.11766 0.75826 0.47408 1.10891 0.761291 0.479796 
1.10338 0.766825 0.479796 1.0974 0.7728 0.479796 1.09089 0.779311 0.479796 
1.08373 0.78647 0.479796 1.0832 0.787009 0.479796 1.07579 0.794415 0.479796 
1.0669 0.803306 0.479796 1.05686 0.81334 0.479796 1.04544 0.82476 0.479796 
1.04435 0.825851 0.479796 1.03234 0.837866 0.479796 1.01717 0.853038 0.479796 
1.15294 0.723249 0.473812 1.15214 0.724047 0.473812 1.14876 0.72743 0.473812 
1.15083 0.728721 0.470449 1.14459 0.7316 0.473812 1.14039 0.735794 0.473812 
1.13615 0.740043 0.473812 1.13181 0.744383 0.473812 1.12734 0.748849 0.473812 
1.1227 0.753492 0.473812 1.11783 0.758361 0.473812 1.11754 0.758644 0.473812 
1.11267 0.763517 0.473812 1.11556 0.765229 0.469211 1.10716 0.769026 0.473812 
1.10122 0.77497 0.473812 1.09475 0.781443 0.473812 1.08763 0.788556 0.473812 
1.0804 0.795785 0.473812 1.07974 0.796445 0.473812 1.08013 0.796644 0.473226 
1.07092 0.80527 0.473812 1.06096 0.815225 0.473812 1.04964 0.82655 0.473812 
1.04144 0.834743 0.473812 1.03664 0.839543 0.473812 1.03951 0.840659 0.469831 
1.02161 0.85458 0.473812 1.15715 0.725875 0.466971 1.15297 0.730056 0.466971 
1.14948 0.733548 0.466971 1.14881 0.734224 0.466971 1.14922 0.734482 0.466298 
1.14461 0.738415 0.466971 1.14759 0.740264 0.462146 1.14037 0.742659 0.466971 
1.13604 0.746992 0.466971 1.13158 0.751449 0.466971 1.12695 0.756078 0.466971 
1.1221 0.760929 0.466971 1.11697 0.766062 0.466971 1.11458 0.768445 0.466971 
1.11149 0.771542 0.466971 1.11332 0.772608 0.464072 1.10558 0.777451 0.466971 
1.09915 0.783879 0.466971 1.09209 0.790941 0.466971 1.08426 0.798766 0.466971 
1.07718 0.805852 0.466971 1.07551 0.807516 0.466971 1.07649 0.807993 0.465517 
1.06565 0.81738 0.466971 1.05443 0.828596 0.466971 1.04157 0.841461 0.466971 
1.03811 0.844919 0.466971 1.02669 0.856342 0.466971 1.16196 0.728872 0.459165 
1.15778 0.733051 0.459165 1.15362 0.737218 0.459165 1.14943 0.741406 0.459165 
1.14641 0.744429 0.459165 1.14519 0.745645 0.459165 1.14593 0.746103 0.457967 
1.14087 0.749969 0.459165 1.14423 0.752042 0.453728 1.13642 0.754415 0.459165 
1.13181 0.759028 0.459165 1.12698 0.76386 0.459165 1.12187 0.768965 0.459165 
1.11642 0.774413 0.459165 1.11114 0.779694 0.459165 1.11055 0.780281 0.459165 
1.1109 0.780478 0.458622 1.10418 0.786659 0.459165 1.10828 0.78893 0.45279 
1.09717 0.793662 0.459165 1.08942 0.801415 0.459165 1.08076 0.810078 0.459165 
1.07346 0.817373 0.459165 1.071 0.819839 0.459165 1.07245 0.820507 0.457043 
1.0599 0.830932 0.459165 1.04719 0.843649 0.459165 1.03429 0.856548 0.459165 
1.03248 0.858353 0.459165 1.03357 0.85873 0.4577 1.16744 0.732282 0.450279 
1.17275 0.735591 0.441659 1.16326 0.736461 0.450279 1.15909 0.740626 0.450279 
1.15491 0.744811 0.450279 1.15068 0.749044 0.450279 1.14636 0.753358 0.450279 
1.14283 0.756896 0.450279 1.14193 0.757792 0.450279 1.14247 0.758123 0.449407 
1.13733 0.762387 0.450279 1.14064 0.764396 0.444964 1.13253 0.767196 0.450279 
1.13871 0.770913 0.440377 1.12745 0.77227 0.450279 1.12204 0.777681 0.450279 
1.11622 0.783503 0.450279 1.1099 0.789825 0.450279 1.10713 0.792591 0.450279 
1.10296 0.796759 0.450279 1.10541 0.798069 0.446521 1.09529 0.80443 0.450279 
1.08673 0.812994 0.450279 1.07708 0.822638 0.450279 1.0692 0.830523 0.450279 
1.06613 0.83359 0.450279 1.06795 0.834366 0.447684 1.05358 0.84614 0.450279 
1.03908 0.860642 0.450279 1.17366 0.736156 0.440188 1.17218 0.73763 0.440188 
1.16948 0.740334 0.440188 1.17114 0.741369 0.437491 1.16532 0.744497 0.440188 
1.16954 0.747126 0.433334 1.16113 0.748678 0.440188 1.16792 0.752895 0.429185 
1.15691 0.752904 0.440188 1.1526 0.757208 0.440188 1.14819 0.761626 0.440188 
1.14361 0.766201 0.440188 1.13883 0.770984 0.440188 1.13863 0.771182 0.440188 
1.13379 0.776024 0.440188 1.13668 0.777736 0.435584 1.12842 0.781393 0.440188 
1.1345 0.784931 0.430569 1.12265 0.787161 0.440188 1.11639 0.79342 0.440188 
1.10954 0.800277 0.440188 1.10247 0.80734 0.440188 1.10196 0.807855 0.440188 
1.10226 0.80801 0.43973 1.09351 0.816305 0.440188 1.09879 0.818886 0.432324 
1.084 0.825817 0.440188 1.0732 0.836609 0.440188 1.06431 0.845506 0.440188 
1.06084 0.848968 0.440188 1.06291 0.849773 0.437317 1.04657 0.863243 0.440188 
1.1807 0.740542 0.428762 1.17652 0.744719 0.428762 1.17236 0.74888 0.428762 
1.16818 0.753057 0.428762 1.16775 0.753484 0.428762 1.16396 0.757275 0.428762 
1.16628 0.75871 0.42501 1.15967 0.761567 0.428762 1.1646 0.764607 0.420793 
1.15527 0.765968 0.428762 1.16287 0.770627 0.416503 1.15072 0.77052 0.428762 
1.14597 0.775272 0.428762 1.14096 0.780274 0.428762 1.13564 0.785596 0.428762 
1.13371 0.78753 0.428762 1.12993 0.791304 0.428762 1.13217 0.792575 0.425255 
1.12375 0.797492 0.428762 1.12964 0.800754 0.419606 1.11698 0.804259 0.428762 
1.10951 0.811731 0.428762 1.10118 0.820055 0.428762 1.09709 0.824146 0.428762 
1.09182 0.829416 0.428762 1.09493 0.830845 0.424225 1.08121 0.840027 0.428762 
1.06907 0.85217 0.428762 1.05873 0.862507 0.428762 1.05505 0.866187 0.428762 
1.05727 0.866958 0.425772 1.18864 0.745492 0.415865 1.19242 0.747845 0.409735 
1.18447 0.749668 0.415865 1.19082 0.753625 0.405555 1.18031 0.753829 0.415865 
1.18922 0.759378 0.401402 1.17614 0.757999 0.415865 1.17193 0.762208 0.415865 
1.16765 0.766487 0.415865 1.16327 0.770869 0.415865 1.16261 0.771525 0.415865 
1.15874 0.775394 0.415865 1.16108 0.776816 0.412104 1.15402 0.780112 0.415865 
1.1592 0.783222 0.407578 1.14906 0.785071 0.415865 1.15722 0.789902 0.402878 
1.1438 0.790338 0.415865 1.13815 0.795981 0.415865 1.13205 0.802087 0.415865 
1.12794 0.806193 0.415865 1.12538 0.808755 0.415865 1.12689 0.809563 0.413547 
1.11803 0.816107 0.415865 1.12388 0.819112 0.407008 1.10985 0.824289 0.415865 
1.10066 0.833478 0.415865 1.09092 0.843211 0.415865 1.09025 0.843886 0.415865 
1.09065 0.844057 0.415293 1.07835 0.855784 0.415865 1.08587 0.858712 0.405418 
1.06462 0.86951 0.415865 1.19758 0.751059 0.401362 1.1934 0.755234 0.401362 
1.18924 0.759393 0.401362 1.1892 0.759434 0.401362 1.18508 0.763557 0.401362 
1.18762 0.765134 0.397246 1.18088 0.767755 0.401362 1.186 0.770924 0.393076 
1.17662 0.772019 0.401362 1.18434 0.776781 0.388879 1.17226 0.77638 0.401362 
1.16776 0.780877 0.401362 1.16308 0.785556 0.401362 1.15817 0.790466 0.401362 
1.15657 0.79207 0.401362 1.15297 0.795672 0.401362 1.15511 0.796919 0.397971 
1.1474 0.80124 0.401362 1.15285 0.804343 0.392807 1.14138 0.807254 0.401362 
[...]
POINT_DATA 1379
FIELD FieldData 5
pressure 1 1379 float
0.347618 0.311824 0.297443 0.2968 0.283075 0.27336 0.266933 0.263003 0.260163 
0.257474 0.25468 0.252952 0.252168 0.252098 0.24665 0.214411 0.180714 0.178612 
0.178574 0.178573 0.178573 0.178571 0.178574 0.178573 0.178573 0.178573 0.286273 
0.305995 0.296411 0.286265 0.283208 0.283141 0.27308 0.266484 0.26255 0.259749 
0.257118 0.254377 0.25203 0.250911 0.247125 0.21632 0.181017 0.178623 0.178573 
0.178572 0.178571 0.178575 0.178573 0.178573 0.178573 0.29409 0.303488 0.29532 
0.283318 0.276617 0.272381 0.272027 0.265868 0.262092 0.25943 0.256934 0.254333 
0.252121 0.248349 0.247687 0.247787 0.21854 0.181393 0.178639 0.178572 0.178571 
0.17857 0.178569 0.178575 0.178573 0.178573 0.178573 0.178573 0.301655 0.304413 
0.295574 0.283803 0.271909 0.268043 0.265081 0.264639 0.261471 0.258998 0.256693 
0.25423 0.252125 0.248092 0.234323 0.221095 0.222859 0.181864 0.178659 0.178572 
0.178569 0.17857 0.178575 0.178573 0.178573 0.307015 0.306157 0.296248 0.285339 
0.271847 0.264291 0.26203 0.26066 0.260337 0.258443 0.25638 0.254123 0.25217 
0.248512 0.223753 0.212267 0.182427 0.183017 0.178683 0.178571 0.178569 0.178573 
0.178576 0.178576 0.178572 0.178573 0.310599 0.312693 0.308274 0.298904 0.2877 
0.272168 0.263619 0.25983 0.25823 0.25778 0.257642 0.255997 0.255533 0.253956 
0.252179 0.24882 0.226281 0.183146 0.182743 0.178711 0.178571 0.178569 0.178576 
0.178576 0.178572 0.178573 0.312966 0.312473 0.310307 0.311369 0.302809 0.291137 
0.272953 0.262965 0.258941 0.257032 0.25551 0.255413 0.253723 0.253502 0.252111 
0.248972 0.229062 0.184708 0.179122 0.178748 0.178751 0.17857 0.178569 0.178576 
0.178573 0.178572 0.178572 0.178573 0.3147 0.312428 0.308535 0.307574 0.308022 
0.296523 0.300419 0.274544 0.262379 0.257979 0.256175 0.254905 0.253389 0.252757 
0.251925 0.251824 0.24906 0.231997 0.186545 0.178822 0.178605 0.178569 0.178569 
0.17857 0.178576 0.178572 0.178572 0.178573 0.316361 0.31464 0.310941 0.301767 
0.284049 0.276751 0.277139 0.261835 0.261627 0.256968 0.255235 0.254203 0.252959 
0.251653 0.249392 0.249129 0.249147 0.235118 0.237251 0.188676 0.178907 0.178573 
0.17857 0.17857 0.17857 0.178576 0.178572 0.178573 0.178573 0.178573 0.317936 
0.319452 0.316743 0.313927 0.305848 0.28169 0.262709 0.257035 0.255998 0.255915 
0.254279 0.253748 0.253432 0.252556 0.252463 0.251389 0.249339 0.237743 0.219162 
0.191168 0.19206 0.179 0.178579 0.17857 0.178574 0.178576 0.178576 0.178572 
0.178574 0.319674 0.319483 0.318961 0.319409 0.316814 0.318949 0.31066 0.316721 
0.288361 0.266107 0.256035 0.253403 0.252539 0.252513 0.251882 0.251686 0.251098 
0.250919 0.249608 0.239856 0.194668 0.179968 0.179095 0.179099 0.178584 0.178588 
0.178569 0.178575 0.178573 0.178572 0.178572 0.178574 0.320816 0.320322 0.319742 
0.31681 0.315164 0.297566 0.300484 0.269733 0.272714 0.25624 0.256639 0.252781 
0.251814 0.251327 0.25086 0.250514 0.249741 0.249809 0.242271 0.244569 0.199077 
0.179461 0.178594 0.17858 0.178569 0.178569 0.178574 0.178573 0.178573 0.178574 
0.178574 0.322191 0.322653 0.321774 0.322526 0.320603 0.322521 0.318433 0.304573 
0.276754 0.25688 0.255967 0.252277 0.252207 0.251217 0.251001 0.250862 0.25055 
0.250545 0.249722 0.244918 0.21953 0.203022 0.203673 0.179824 0.180016 0.178606 
0.178569 0.178574 0.178574 0.178574 0.178573 0.178574 0.178574 0.323463 0.322947 
0.322526 0.322513 0.320754 0.321718 0.312895 0.317308 0.288711 0.300051 0.262214 
0.252826 0.25091 0.250502 0.250423 0.250222 0.250178 0.249503 0.249486 0.245632 
0.246202 0.208505 0.180461 0.178889 0.178614 0.178614 0.17857 0.178571 0.178572 
0.178574 0.178574 0.178573 0.178573 0.324639 0.325085 0.324511 0.325122 0.32415 
0.325322 0.323564 0.318513 0.301988 0.271867 0.267939 0.268112 0.253786 0.254082 
0.250722 0.250653 0.250041 0.249666 0.249859 0.249382 0.246298 0.235025 0.214781 
0.216107 0.181503 0.181979 0.178673 0.178721 0.17857 0.17857 0.17857 0.17857 
0.178575 0.178576 0.178573 0.325924 0.326997 0.325413 0.325416 0.325123 0.325021 
0.3251 0.322615 0.323507 0.312602 0.318178 0.283862 0.295583 0.258632 0.264151 
0.25108 0.249594 0.249394 0.249374 0.24936 0.248996 0.248844 0.24692 0.247075 
0.221084 0.226795 0.183209 0.178732 0.17869 0.178569 0.178568 0.178569 0.178569 
0.178576 0.178573 0.178572 0.178572 0.327088 0.326738 0.326457 0.326508 0.326124 
0.326249 0.325783 0.326055 0.324049 0.325502 0.319768 0.322478 0.299771 0.266534 
0.256851 0.251936 0.252005 0.249184 0.249045 0.248944 0.248658 0.248691 0.24849 
0.247181 0.247547 0.227649 0.203095 0.185589 0.185842 0.178874 0.178926 0.178574 
0.178579 0.178569 0.178574 0.178577 0.178577 0.178572 0.178572 0.327811 0.327874 
0.326952 0.32712 0.326702 0.326938 0.326489 0.326728 0.325924 0.326493 0.322752 
0.315984 0.314767 0.315132 0.28609 0.290119 0.257833 0.260133 0.249699 0.250221 
0.248632 0.248623 0.248506 0.248547 0.247582 0.245185 0.234109 0.235544 0.190696 
0.192632 0.179124 0.179304 0.178583 0.178598 0.17857 0.178568 0.178568 0.178576 
0.178576 0.178572 0.178573 0.329165 0.329599 0.327718 0.328106 0.327279 0.327653 
0.326964 0.327369 0.32671 0.327421 0.32643 0.326381 0.326409 0.322668 0.32407 
0.305436 0.312703 0.272423 0.282485 0.252556 0.256004 0.248791 0.249259 0.248542 
0.248552 0.24843 0.248549 0.239317 0.241321 0.197615 0.202222 0.17962 0.180182 
0.178601 0.178593 0.178568 0.178568 0.178574 0.178573 0.178573 0.178575 0.33335 
0.334371 0.32976 0.330694 0.328402 0.329282 0.327736 0.328709 0.327561 0.328619 
0.327363 0.328437 0.327298 0.327368 0.325814 0.326451 0.318969 0.323346 0.29472 
0.307449 0.262548 0.274242 0.250003 0.253245 0.248553 0.249559 0.248534 0.248535 
0.248221 0.248208 0.242567 0.243644 0.207435 0.213932 0.180697 0.182163 0.178741 
0.178782 0.178642 0.178643 0.178568 0.178568 0.178571 0.178569 0.178575 0.178577 
0.381975 0.345994 0.346889 0.353037 0.334704 0.336015 0.330818 0.331974 0.329305 
0.330183 0.328826 0.329613 0.328482 0.329378 0.328403 0.3296 0.328202 0.328325 
0.32657 0.327077 0.316374 0.323158 0.285701 0.302273 0.256509 0.266125 0.249723 
0.251702 0.249112 0.249316 0.248366 0.248362 0.245239 0.245807 0.219223 0.225079 
0.183369 0.185917 0.178798 0.179074 0.178738 0.178569 0.178569 0.178567 0.178566 
0.178577 0.178578 0.390882 0.418172 0.355859 0.395447 0.348367 0.362255 0.33863 
0.339458 0.343173 0.332838 0.333868 0.330836 0.331797 0.329981 0.330936 0.329812 
0.330542 0.329153 0.330243 0.329097 0.329125 0.329433 0.326859 0.327795 0.327048 
0.314061 0.320859 0.279113 0.293347 0.254324 0.260455 0.249466 0.250701 0.24803 
0.247878 0.246645 0.246806 0.239107 0.230927 0.233675 0.18945 0.192799 0.179231 
0.179634 0.178595 0.178634 0.178593 0.178593 0.178561 0.178563 0.178563 0.178576 
0.178575 0.44103 0.433401 0.436625 0.437429 0.416357 0.431204 0.429582 0.378976 
0.405 0.348679 0.373707 0.336382 0.348372 0.335871 0.335924 0.337259 0.332404 
0.332766 0.333165 0.331106 0.331383 0.33162 0.330542 0.330741 0.329712 0.330096 
0.327102 0.328106 0.323903 0.325818 0.31219 0.315193 0.310115 0.276199 0.283421 
0.273235 0.253447 0.256367 0.248459 0.249815 0.239309 0.242397 0.227662 0.215905 
0.202228 0.203738 0.183902 0.180545 0.181007 0.178685 0.178756 0.178562 0.178566 
0.178563 0.178563 0.17857 0.178569 0.440069 0.440556 0.440337 0.438907 0.438291 
0.439595 0.436413 0.43105 0.440314 0.421329 0.435658 0.412883 0.416362 0.421257 
0.372496 0.382725 0.391691 0.345061 0.353349 0.358604 0.334989 0.339415 0.342223 
0.331844 0.334579 0.331417 0.332657 0.330884 0.331017 0.332145 0.329698 0.330451 
0.331823 0.327175 0.32878 0.328789 0.314204 0.325411 0.275023 0.300467 0.26752 
0.265717 0.253891 0.254561 0.251055 0.244571 0.245907 0.235164 0.220462 0.226808 
0.184918 0.189299 0.180556 0.179589 0.179015 0.179035 0.178648 0.178584 0.178591 
0.178558 0.178562 0.178559 0.440889 0.44026 0.439754 0.439689 0.4411 0.440843 
0.439217 0.439671 0.440491 0.436901 0.439028 0.435534 0.439476 0.439225 0.435391 
0.4354 0.437868 0.439774 0.430733 0.434268 0.437349 0.408839 0.42683 0.425628 
0.368448 0.399931 0.405373 0.342333 0.364537 0.342084 0.369565 0.34431 0.335053 
0.335691 0.335683 0.33269 0.332902 0.333203 0.331751 0.331266 0.331313 0.328711 
0.328266 0.322843 0.33075 0.32643 0.316116 0.317854 0.315255 0.282469 0.290284 
0.282082 0.255596 0.261136 0.253858 0.236773 0.243076 0.203125 0.220215 0.208866 
0.197728 0.198004 0.183182 0.18041 0.180718 0.179091 0.178705 0.178774 0.178603 
0.17856 0.178567 0.440964 0.441063 0.441008 0.441155 0.440701 0.440514 0.441078 
0.44076 0.44099 0.440423 0.440346 0.440562 0.44062 0.44047 0.439646 0.439378 
0.439336 0.440247 0.439102 0.437849 0.437962 0.436678 0.438583 0.437167 0.435778 
0.435549 0.437554 0.436902 0.430533 0.434236 0.436849 0.435986 0.413194 0.429573 
0.429106 0.37181 0.408495 0.364646 0.409664 0.373842 0.343878 0.345905 0.376341 
0.349278 0.335902 0.338035 0.337486 0.332166 0.333975 0.333797 0.330872 0.332502 
0.330044 0.330827 0.328389 0.325695 0.327912 0.327667 0.318721 0.295675 0.305471 
0.300039 0.260111 0.273209 0.255964 0.221082 0.23425 0.212693 0.204366 0.194125 
0.186541 0.187381 0.180789 0.179403 0.179691 0.178866 0.17862 0.178688 0.442174 
0.442032 0.441799 0.441511 0.441255 0.441302 0.441667 0.441645 0.441543 0.441361 
0.44086 0.441102 0.440883 0.441252 0.441383 0.441373 0.441197 0.440881 0.440891 
0.441342 0.441455 0.441399 0.440772 0.44103 0.441222 0.441183 0.441148 0.440383 
0.440943 0.439845 0.440867 0.44051 0.440054 0.43936 0.439509 0.440006 0.439378 
0.438432 0.437568 0.437657 0.438302 0.437584 0.436847 0.437001 0.435813 0.437537 
0.437001 0.436181 0.434085 0.434861 0.436372 0.435872 0.434318 0.42097 0.430152 
0.433277 0.428626 0.384294 0.40815 0.352041 0.424823 0.410058 0.375877 0.34753 
0.347944 0.373425 0.349647 0.33696 0.338366 0.346242 0.337653 0.332495 0.334725 
0.33584 0.33173 0.328455 0.333167 0.323906 0.332726 0.326416 0.326226 0.316595 
0.319319 0.322694 0.305324 0.270606 0.282082 0.295023 0.258188 0.210105 0.224168 
0.184149 0.219106 0.197207 0.186962 0.182667 0.182705 0.181309 0.179868 0.179097 
0.179209 0.44035 0.441379 0.441485 0.441829 0.442024 0.442242 0.442226 0.440093 
0.441167 0.441019 0.441126 0.441288 0.441666 0.441508 0.441635 0.439639 0.440774 
0.440712 0.440733 0.440752 0.440862 0.441212 0.441087 0.441323 0.440947 0.440938 
0.440836 0.440785 0.440824 0.441018 0.441337 0.441325 0.440867 0.440846 0.440691 
0.4406 0.440703 0.441121 0.440836 0.440994 0.440965 0.441082 0.440898 0.440721 
0.440815 0.44083 0.440819 0.441064 0.441207 0.441355 0.440929 0.440496 0.44012 
0.440352 0.439201 0.441099 0.441279 0.441009 0.440154 0.439328 0.43883 0.438905 
0.440463 0.440517 0.439684 0.438442 0.437518 0.437595 0.438459 0.439252 0.439214 
0.437881 0.436351 0.43651 0.436117 0.437052 0.438158 0.437736 0.435974 0.434447 
0.435008 0.435445 0.43708 0.435412 0.426791 0.431548 0.407352 0.431248 0.434093 
0.433649 0.426259 0.406082 0.406565 0.428866 0.427163 0.422119 0.404597 0.361592 
0.370077 0.417902 0.395546 0.368064 0.339768 0.347852 0.390375 0.360355 0.343397 
0.332739 0.337747 0.332719 0.343636 0.332254 0.329949 0.329094 0.331186 0.339482 
0.327534 0.318588 0.302657 0.3144 0.335538 0.326793 0.302953 0.220545 0.260647 
0.215541 0.263699 0.223282 0.196112 0.183845 0.184949 0.439781 0.440289 0.439834 
0.440913 0.439539 0.440887 0.440844 0.440744 0.438969 0.440371 0.440757 0.440667 
0.438301 0.439619 0.44106 0.440108 0.441059 0.437752 0.438814 0.439365 0.440819 
0.440088 0.44046 0.437214 0.438263 0.43829 0.438946 0.439933 0.439617 0.436741 
0.438114 0.437837 0.437694 0.438423 0.437809 0.43825 0.43609 0.438121 0.437933 
0.43724 0.436418 0.436541 0.436123 0.433526 0.435037 0.437403 0.437766 0.437286 
0.435984 0.434343 0.433438 0.433411 0.433777 0.434608 0.436382 0.437303 0.436832 
0.434694 0.431321 0.43179 0.43288 0.430761 0.432889 0.435218 0.437088 0.436973 
0.429098 0.43403 0.429009 0.427803 0.428205 0.430451 0.433838 0.436879 0.437161 
0.425675 0.430422 0.425943 0.426599 0.429362 0.432675 0.432534 0.397241 0.421854 
0.376723 0.426877 0.423642 0.422395 0.422547 0.412911 0.391916 0.36107 0.364834 
0.423153 0.412138 0.395445 0.375233 0.358591 0.343994 0.349364 0.425424 0.39898 
0.367675 0.34377 0.335267 0.335554 0.335332 0.330492 0.37658 0.349252 0.328213 
0.31379 0.307965 0.284026 0.293866 0.433147 0.430866 0.436599 0.427654 0.447002 
0.427049 0.42755 0.470606 0.427289 0.431417 0.427456 0.50695 0.437437 0.427139 
0.430662 0.546206 0.445915 0.425536 0.439639 0.425142 0.585425 0.439222 0.428243 
0.392234 0.406534 
velocity_u 1 1379 float
0.809371 0.851738 0.880336 0.880987 0.894874 0.905573 0.912026 0.916014 0.918683 
0.921041 0.923397 0.924842 0.925499 0.925751 0.929404 0.961181 0.997269 0.999938 
0.999997 1 1 1 0.999998 1 1 1 0.862312 
0.871874 0.881462 0.891575 0.89458 0.89461 0.90535 0.911928 0.916022 0.918854 
0.921435 0.923938 0.925976 0.926664 0.929038 0.959368 0.996896 0.999923 1 
1 1 0.999997 1 1 1 0.878292 0.876948 0.881996 
0.894372 0.901091 0.90538 0.905559 0.91206 0.916053 0.918927 0.92158 0.924209 
0.926379 0.928655 0.929068 0.92928 0.957069 0.996428 0.9999 1 1 
1 1 0.999997 1 1 1 1 0.875102 0.876605 
0.881859 0.894132 0.905433 0.909294 0.912253 0.912616 0.915974 0.918728 0.921447 
0.924343 0.926908 0.930413 0.942604 0.954463 0.952629 0.995855 0.999875 1 
1 1 0.999997 1 1 0.872598 0.876554 0.880747 0.893092 
0.905449 0.912881 0.915121 0.916487 0.916846 0.918998 0.921629 0.92457 0.927343 
0.931699 0.95154 0.963693 0.995172 0.99445 0.999845 1 1 0.999998 
0.999996 0.999996 1 1 0.86975 0.867951 0.874872 0.877441 0.891615 
0.905323 0.913763 0.917499 0.919266 0.919779 0.919978 0.922203 0.922947 0.92498 
0.927565 0.931343 0.948701 0.994302 0.994792 0.999809 1.00001 1.00001 0.999996 
0.999996 1 1 0.86767 0.868385 0.871893 0.869735 0.873047 0.888869 
0.90469 0.914707 0.918787 0.920955 0.922981 0.923107 0.925276 0.925297 0.927368 
0.930197 0.946235 0.992537 0.999298 0.999764 0.99976 1.00001 1 0.999996 
0.999999 1 1 0.999999 0.865669 0.868039 0.866468 0.866475 0.865904 
0.884493 0.880732 0.90359 0.91571 0.920144 0.922081 0.923569 0.925267 0.925957 
0.926881 0.926847 0.929234 0.943729 0.990504 0.999672 0.999961 1.00001 1.00001 
1 0.999996 1 1 1 0.864956 0.866806 0.864134 0.879728 
0.895235 0.901832 0.901439 0.916343 0.916442 0.921196 0.922973 0.924095 0.925416 
0.926801 0.928644 0.928867 0.928895 0.94089 0.938594 0.988163 0.999563 1.00001 
1 1 1 0.999996 1 1 1 1 0.863925 
0.864011 0.865074 0.864176 0.877426 0.896141 0.915329 0.920895 0.921915 0.921918 
0.923707 0.923508 0.924714 0.924148 0.925942 0.927307 0.929525 0.93815 0.956866 
0.985365 0.984399 0.999443 1.00001 0.999999 0.999998 0.999997 0.999997 1 
0.999999 0.863964 0.864425 0.865299 0.865318 0.864309 0.865437 0.87537 0.867085 
0.88874 0.911276 0.920858 0.92328 0.924144 0.924215 0.925903 0.926256 0.927671 
0.928319 0.93025 0.937122 0.981463 0.998317 0.99932 0.999315 1 1 
0.999998 0.999997 0.999999 1 1 0.999999 0.86392 0.86445 0.86491 
0.866743 0.867945 0.880866 0.876803 0.906558 0.902875 0.919987 0.918782 0.923691 
0.925191 0.926731 0.928368 0.92897 0.930139 0.929942 0.936083 0.936891 0.976229 
0.998855 0.99999 0.999999 0.999998 0.999998 0.999998 1 0.999999 0.999999 
0.999999 0.863101 0.863064 0.86235 0.860317 0.861179 0.856604 0.866801 0.868427 
0.89894 0.918518 0.919498 0.923612 0.92355 0.925282 0.925273 0.92658 0.926642 
0.927907 0.92978 0.937308 0.957686 0.971155 0.970287 0.998401 0.998158 0.99996 
0.999999 1 1 1 0.999999 0.999999 0.999999 0.862349 0.859495 
0.856595 0.856573 0.856097 0.855743 0.865115 0.855664 0.886572 0.876025 0.912831 
0.922823 0.925374 0.926711 0.927195 0.928353 0.928547 0.931027 0.931861 0.938093 
0.93689 0.965121 0.997614 0.999588 0.999939 0.999937 1.00001 1 1 
0.999999 0.999999 1 1 0.860221 0.859899 0.858263 0.856832 0.857062 
0.855808 0.85753 0.851658 0.875158 0.902918 0.906642 0.906453 0.921975 0.921719 
0.926213 0.926573 0.928109 0.929057 0.92986 0.932316 0.936797 0.94446 0.958742 
0.957413 0.996326 0.995731 0.999863 0.999801 1 1 1 1 
0.999997 0.999996 1 0.858527 0.857056 0.85602 0.855657 0.856455 0.856529 
0.856514 0.858567 0.856163 0.863338 0.860218 0.891394 0.878895 0.917515 0.912149 
0.926622 0.929434 0.931358 0.931636 0.931692 0.933509 0.934057 0.936321 0.936723 
0.951244 0.94348 0.994274 0.999786 0.999842 1.00001 1.00001 1 1 
0.999996 0.999999 1 1 0.85695 0.856054 0.855343 0.855197 0.854071 
0.854121 0.85246 0.853011 0.850503 0.850468 0.860669 0.84595 0.874468 0.9101 
0.921009 0.926887 0.926915 0.931621 0.932393 0.933346 0.934664 0.934824 0.936003 
0.936159 0.934178 0.942392 0.970957 0.991387 0.991078 0.999609 0.999545 1.00001 
1.00001 1 0.999997 0.999995 0.999995 1 1 0.854835 0.85474 
0.854628 0.853951 0.854532 0.852174 0.852974 0.849269 0.849508 0.849334 0.845298 
0.861633 0.864317 0.863979 0.892539 0.888982 0.922659 0.921003 0.932833 0.93334 
0.934901 0.93549 0.935398 0.933457 0.933992 0.93392 0.934777 0.933092 0.98575 
0.98353 0.999295 0.999068 1 0.999985 1 1 1 0.999997 
0.999997 1 1 0.852236 0.851394 0.85096 0.850218 0.849759 0.848808 
0.848896 0.847456 0.850087 0.850524 0.85307 0.853421 0.853389 0.857504 0.857766 
0.87339 0.865819 0.910756 0.902315 0.93107 0.928033 0.934826 0.933045 0.933287 
0.932268 0.929784 0.929214 0.92946 0.927422 0.978654 0.973998 0.998678 0.997983 
0.999981 0.999988 1 1 0.999998 1 0.999999 0.999998 0.847219 
0.845783 0.848794 0.847036 0.848302 0.847224 0.847676 0.8491 0.850826 0.852891 
0.855192 0.855987 0.856627 0.856647 0.859505 0.858315 0.858231 0.857014 0.890758 
0.879519 0.921327 0.90936 0.9318 0.926247 0.930341 0.927377 0.93028 0.930266 
0.927671 0.927204 0.92816 0.928112 0.969096 0.962827 0.997361 0.995567 0.999783 
0.999729 0.999906 0.999906 1.00001 1.00001 1 1 0.999998 0.999995 
0.801524 0.833615 0.83277 0.826098 0.842646 0.841439 0.846502 0.845887 0.849712 
0.850625 0.852943 0.854382 0.855942 0.855983 0.856678 0.856164 0.857684 0.857621 
0.860065 0.858564 0.871831 0.867678 0.896451 0.877622 0.92231 0.910045 0.927076 
0.922909 0.926742 0.925045 0.925868 0.9257 0.928013 0.927945 0.958115 0.952788 
0.994241 0.991331 0.999708 0.999371 0.999786 1.00001 1.00001 1.00001 1.00001 
0.999995 0.999994 0.793947 0.770205 0.823678 0.79124 0.831182 0.823633 0.841427 
0.841015 0.842353 0.849792 0.849774 0.853946 0.853408 0.855579 0.854178 0.85602 
0.854466 0.858321 0.855539 0.858435 0.858419 0.854921 0.864826 0.86268 0.848663 
0.862546 0.854357 0.896487 0.882393 0.920079 0.915756 0.925039 0.928233 0.927514 
0.932562 0.929664 0.930264 0.933985 0.947653 0.944232 0.987442 0.983715 0.999179 
0.998683 0.999989 0.999934 0.999992 0.999992 1.00001 1.00001 1.00001 0.999996 
0.999997 0.755786 0.760063 0.757562 0.756971 0.775272 0.764327 0.763876 0.809427 
0.786709 0.83725 0.814558 0.848215 0.836746 0.848667 0.848618 0.84656 0.851608 
0.851246 0.849843 0.85279 0.852414 0.849985 0.853764 0.852691 0.853625 0.850422 
0.848709 0.848208 0.853549 0.860707 0.869283 0.866977 0.868416 0.903746 0.897051 
0.90528 0.926854 0.923735 0.931914 0.929284 0.933529 0.932246 0.946048 0.960151 
0.973693 0.972084 0.993578 0.997575 0.997014 0.999867 0.99977 1.00001 1.00001 
1.00001 1.00001 0.999999 1 0.753791 0.755289 0.754855 0.756496 0.756535 
0.755355 0.762245 0.76324 0.760763 0.773496 0.761387 0.782343 0.779514 0.774895 
0.814836 0.80608 0.800576 0.839046 0.832665 0.82563 0.847811 0.844379 0.837582 
0.849707 0.846705 0.849286 0.846757 0.848423 0.848033 0.849301 0.850249 0.850694 
0.851668 0.859967 0.857578 0.848306 0.865142 0.855716 0.903538 0.879282 0.910792 
0.913437 0.924135 0.923427 0.928761 0.930539 0.930756 0.938694 0.955848 0.948911 
0.992481 0.987626 0.997596 0.998758 0.999452 0.999428 0.999923 0.999995 0.99999 
1.00002 1.00001 1.00001 0.754652 0.753845 0.753387 0.753399 0.758718 0.758227 
0.757129 0.75782 0.760014 0.762055 0.760637 0.762626 0.761581 0.761447 0.762642 
0.762676 0.762405 0.763066 0.769832 0.76693 0.760786 0.78678 0.770492 0.761104 
0.816274 0.787198 0.78178 0.837471 0.815797 0.837698 0.81348 0.836011 0.843739 