# vtk DataFile Version 5.1
vtk output
ASCII
DATASET POLYDATA
POINTS 935 float
1.00217 0.847833 0.5 1.01435 0.835647 0.5 0.999941 0.847059 0.503 
0.997643 0.846262 0.506095 0.995202 0.845414 0.509384 0.992539 0.84449 0.512971 
0.989571 0.84346 0.516969 0.987707 0.842813 0.519479 0.986203 0.842291 0.521506 
0.989105 0.839389 0.521506 0.982327 0.840947 0.526726 0.992673 0.830601 0.526726 
0.977823 0.839382 0.532795 0.972545 0.837551 0.539904 0.966975 0.835618 0.547407 
0.966326 0.835393 0.548281 0.967562 0.834157 0.548281 0.95897 0.83284 0.55819 
0.974121 0.817689 0.55819 0.950243 0.82981 0.569947 0.946246 0.828423 0.575331 
0.939867 0.826209 0.583924 0.951767 0.814309 0.583924 0.927514 0.821921 0.600565 
0.925521 0.82123 0.603249 0.912789 0.816811 0.6204 0.904787 0.814033 0.631181 
0.895228 0.810715 0.644057 0.88402 0.806826 0.659154 0.912316 0.793627 0.644057 
0.874271 0.803442 0.672287 0.863186 0.799595 0.687219 0.891281 0.786432 0.672287 
0.821124 0.784996 0.74388 0.849254 0.794759 0.705987 0.842239 0.792324 0.715437 
0.819382 0.784392 0.746226 0.799774 0.777585 0.772641 0.822182 0.781592 0.746226 
0.756053 0.762411 0.831536 0.783709 0.772009 0.794282 0.778112 0.770067 0.801821 
0.710359 0.746551 0.89309 0.741098 0.75722 0.851682 0.733504 0.754585 0.861912 
0.635053 0.720414 0.994534 0.661135 0.729466 0.959399 0.690199 0.739555 0.920246 
0.686265 0.738189 0.925546 0.580494 0.701478 1.06803 0.629399 0.718451 1.00215 
0.608128 0.711069 1.0308 0.635608 0.712242 1.00215 0.55676 0.69324 1.1 
0.579665 0.670335 1.1 1.0178 0.832203 0.5 1.01603 0.831533 0.502434 
1.01562 0.831376 0.503 1.01642 0.830579 0.503 1.01338 0.830524 0.506095 
1.01853 0.825379 0.506095 1.011 0.829616 0.509384 1.02075 0.819871 0.509384 
1.0084 0.828627 0.512971 1.00551 0.827524 0.516969 1.00222 0.826274 0.521506 
0.998438 0.824836 0.526726 0.995454 0.823702 0.530844 0.99404 0.823165 0.532795 
0.99674 0.820465 0.532795 0.988888 0.821208 0.539904 1.00135 0.808742 0.539904 
0.982816 0.818903 0.548281 0.975632 0.816178 0.55819 0.974837 0.815877 0.559286 
0.967104 0.812949 0.569947 0.981479 0.798574 0.569947 0.956964 0.809112 0.583924 
0.954185 0.808061 0.587753 0.944885 0.80455 0.600565 0.933493 0.800254 0.616253 
0.93048 0.79912 0.6204 0.935852 0.793748 0.6204 0.913289 0.792654 0.644057 
0.912745 0.792449 0.644806 0.870951 0.7768 0.702249 0.89276 0.784953 0.672287 
0.891911 0.784635 0.673454 0.868229 0.775784 0.705987 0.849812 0.768921 0.731266 
0.872672 0.771341 0.705987 0.806736 0.752941 0.790323 0.838907 0.764867 0.746226 
0.828432 0.760978 0.76059 0.855941 0.747833 0.746226 0.762044 0.736458 0.851497 
0.803846 0.751872 0.794282 0.784639 0.74478 0.820581 0.808059 0.747659 0.794282 
0.71493 0.719176 0.915895 0.761909 0.736409 0.851682 0.738847 0.727938 0.883215 
0.76209 0.736228 0.851682 0.663866 0.700459 0.985676 0.711749 0.718005 0.920246 
0.689972 0.710008 0.95002 0.715583 0.714171 0.920246 0.608577 0.68037 1.06105 
0.651793 0.696057 1.00215 0.636697 0.690565 1.02274 0.664785 0.683065 1.00215 
0.579959 0.670041 1.1 1.03128 0.818716 0.5 1.02917 0.817831 0.503 
1.02699 0.816915 0.506095 1.02467 0.815944 0.509384 1.02266 0.815099 0.512242 
1.02215 0.814883 0.512971 1.02314 0.813891 0.512971 1.01933 0.813704 0.516969 
1.02574 0.807292 0.516969 1.01613 0.812365 0.521506 1.01245 0.810825 0.526726 
1.00817 0.809034 0.532795 1.00316 0.806939 0.539904 1.00221 0.806543 0.541245 
0.99725 0.804469 0.548281 1.00657 0.795152 0.548281 0.990261 0.801549 0.55819 
0.981967 0.798086 0.569947 0.981705 0.797977 0.570317 0.972103 0.793973 0.583924 
0.961129 0.789402 0.599469 0.960355 0.78908 0.600565 0.961741 0.787694 0.600565 
0.946346 0.783254 0.6204 0.940475 0.780815 0.628711 0.929629 0.776314 0.644057 
0.91972 0.772205 0.658075 0.909669 0.768044 0.672287 0.89883 0.76356 0.68761 
0.885825 0.758188 0.705987 0.877755 0.754859 0.717386 0.834804 0.737184 0.778012 
0.85733 0.746444 0.746226 0.856438 0.746077 0.747485 0.790232 0.718921 0.840847 
0.823268 0.73245 0.794282 0.812767 0.728145 0.809088 0.839827 0.715891 0.794282 
0.743208 0.699724 0.907068 0.782541 0.715777 0.851682 0.767086 0.709464 0.87345 
0.792696 0.705622 0.851682 0.692542 0.679047 0.978412 0.733845 0.695909 0.920246 
0.71846 0.689645 0.941895 0.745043 0.684711 0.920246 0.607452 0.644586 1.09796 
0.636939 0.656471 1.05659 0.675675 0.672175 1.00215 0.66534 0.667975 1.01668 
0.693722 0.654128 1.00215 0.605998 0.644002 1.1 0.607351 0.642649 1.1 
1.04302 0.806976 0.5 1.04097 0.806031 0.503 1.03885 0.805056 0.506095 
1.0366 0.804019 0.509384 1.03414 0.80289 0.512971 1.0314 0.801629 0.516969 
1.02847 0.800283 0.521244 1.02829 0.800201 0.521506 1.02864 0.799857 0.521506 
1.02472 0.798554 0.526726 1.03188 0.79139 0.526726 1.02056 0.796643 0.532795 
1.0157 0.794401 0.539904 1.00996 0.791761 0.548281 1.00816 0.790934 0.550905 
1.00317 0.788637 0.55819 1.01242 0.779395 0.55819 0.995121 0.784932 0.569947 
0.987753 0.781538 0.580709 0.985552 0.780524 0.583924 0.989534 0.776542 0.583924 
0.974158 0.775277 0.600565 0.967249 0.772095 0.610657 0.960579 0.769021 0.6204 
0.946632 0.762593 0.640775 0.972213 0.757387 0.6204 0.944386 0.761557 0.644057 
0.925873 0.753021 0.671106 0.948204 0.757739 0.644057 0.925065 0.752648 0.672287 
0.904931 0.743357 0.701712 0.926395 0.751318 0.672287 0.902006 0.742007 0.705987 
0.883748 0.733574 0.732677 0.906635 0.737378 0.705987 0.874482 0.729292 0.746226 
0.862256 0.723639 0.764105 0.88849 0.715284 0.746226 0.817985 0.703146 0.828868 
0.841624 0.714094 0.794282 0.840367 0.713513 0.79612 0.77127 0.681474 0.897256 
0.802398 0.69592 0.851682 0.794996 0.692487 0.862518 0.721005 0.658105 0.970891 
0.755573 0.674181 0.920246 0.74666 0.670039 0.933301 0.774442 0.655312 0.920246 
0.635758 0.618362 1.09588 0.66557 0.63222 1.05221 0.699708 0.648142 1.00215 
0.694011 0.645481 1.01051 0.632944 0.617056 1.1 0.635569 0.614431 1.1 
1.05333 0.796675 0.5 1.05407 0.795934 0.5 1.05133 0.795674 0.503 
1.05596 0.791044 0.503 1.04926 0.794642 0.506095 1.05789 0.78602 0.506095 
1.04707 0.793544 0.509384 1.04468 0.792349 0.512971 1.04202 0.791013 0.516969 
1.039 0.789498 0.521506 1.03552 0.787754 0.526726 1.03362 0.786802 0.529577 
1.03148 0.785726 0.532795 1.03554 0.781661 0.532795 1.02675 0.783348 0.539904 
1.02117 0.780547 0.548281 1.01458 0.77723 0.55819 1.01342 0.776644 0.559939 
1.00676 0.773289 0.569947 0.997477 0.768599 0.583924 0.993104 0.766389 0.590507 
0.986426 0.763009 0.600565 0.973263 0.756337 0.6204 0.972663 0.756032 0.621304 
0.957581 0.748362 0.644057 0.952078 0.745558 0.652364 0.93889 0.738823 0.672287 
0.931312 0.734946 0.683743 0.91661 0.727403 0.705987 0.910314 0.724166 0.71552 
0.867347 0.701954 0.7807 0.890055 0.713719 0.746226 0.88902 0.713184 0.747796 
0.82246 0.678525 0.849015 0.858411 0.697307 0.794282 0.845199 0.690422 0.81438 
0.871158 0.68456 0.794282 0.82071 0.677608 0.851682 0.798998 0.666194 0.884808 
0.823006 0.675312 0.851682 0.72264 0.625701 1.00166 0.749273 0.639882 0.960845 
0.775805 0.653949 0.920246 0.77466 0.653343 0.921996 0.664659 0.594649 1.09069 
0.72232 0.62553 1.00215 0.69447 0.610612 1.04492 0.722659 0.62519 1.00215 
0.658597 0.591403 1.1 0.664304 0.585696 1.1 1.06244 0.787561 0.5 
1.06049 0.786512 0.503 1.05848 0.785429 0.506095 1.05817 0.785266 0.506561 
1.05634 0.78428 0.509384 1.05989 0.78073 0.509384 1.05401 0.783023 0.512971 
1.06204 0.774986 0.512971 1.05141 0.781623 0.516969 1.04846 0.780034 0.521506 
1.04507 0.778204 0.526726 1.04113 0.776077 0.532795 1.0382 0.774493 0.537306 
1.03652 0.773579 0.539904 1.03971 0.770389 0.539904 1.03108 0.770637 0.548281 
1.02466 0.767149 0.55819 1.01809 0.763576 0.56833 1.01705 0.763005 0.569947 
1.01898 0.761074 0.569947 1.00801 0.758069 0.583924 0.997852 0.75251 0.599639 
0.997254 0.752181 0.600565 0.998326 0.751109 0.600565 0.984457 0.745143 0.6204 
0.977459 0.741281 0.631259 0.969222 0.736721 0.644057 0.956892 0.729871 0.663237 
0.951082 0.726631 0.672287 0.936106 0.718249 0.695645 0.960785 0.716928 0.672287 
0.929485 0.714528 0.705987 0.915043 0.706378 0.728579 0.94014 0.703874 0.705987 
0.903782 0.699992 0.746226 0.893627 0.69421 0.762163 0.849351 0.668741 0.831908 
0.873204 0.682514 0.794282 0.871767 0.681688 0.796545 0.802302 0.641242 0.906456 
0.836845 0.661473 0.851682 0.826247 0.655291 0.868462 0.751152 0.610902 0.987947 
0.793628 0.636127 0.920246 0.777338 0.626487 0.946175 0.804228 0.625526 0.920246 
0.694108 0.576613 1.07928 0.742263 0.605587 1.00215 0.723507 0.594342 1.03215 
0.751952 0.595898 1.00215 0.681189 0.568811 1.1 0.693585 0.556415 1.1 
1.07057 0.77943 0.5 1.06866 0.778342 0.503 1.06669 0.777219 0.506095 
1.06459 0.776027 0.509384 1.0623 0.774725 0.512971 1.06217 0.774648 0.513182 
1.05976 0.773272 0.516969 1.06441 0.768626 0.516969 1.05687 0.771624 0.521506 
1.05355 0.769725 0.526726 1.04969 0.767515 0.532795 1.04517 0.764923 0.539904 
1.04229 0.763268 0.544441 1.03985 0.761866 0.548281 1.04445 0.757267 0.548281 
1.03357 0.758242 0.55819 1.02612 0.753935 0.569947 1.02226 0.7517 0.576042 
1.01727 0.748806 0.583924 1.00676 0.742678 0.600565 1.00207 0.739935 0.608 
0.994251 0.735349 0.6204 0.981707 0.727953 0.64034 0.979371 0.726572 0.644057 
0.983451 0.722492 0.644057 0.961667 0.716046 0.672287 0.96114 0.715731 0.67313 
0.919176 0.6904 0.740424 0.940609 0.703404 0.705987 0.940317 0.703228 0.706454 
0.915574 0.6882 0.746226 0.897629 0.677186 0.775185 0.92122 0.682554 0.746226 
0.852887 0.649305 0.847808 0.88583 0.669888 0.794282 0.875574 0.663516 0.81091 
0.850511 0.647807 0.851682 0.829418 0.634454 0.886128 0.853759 0.644559 0.851682 
0.779416 0.602347 0.968237 0.808597 0.621157 0.920246 0.804995 0.618847 0.926158 
0.72381 0.566017 1.06017 0.758863 0.588987 1.00215 0.752446 0.584799 1.01276 
0.69982 0.55018 1.1 1.07789 0.772115 0.5 1.076 0.770998 0.503 
1.07406 0.769845 0.506095 1.072 0.76862 0.509384 1.06975 0.767283 0.512971 
1.06724 0.765791 0.516969 1.06577 0.764916 0.519312 1.0644 0.764097 0.521506 
1.06704 0.761456 0.521506 1.06113 0.762147 0.526726 1.05733 0.759877 0.532795 
[...]
POINT_DATA 935
FIELD FieldData 5
pressure 1 935 float
0.178573 0.178573 0.178573 0.178573 0.178573 0.178573 0.178573 0.178573 0.178573 
0.178573 0.178573 0.178573 0.178573 0.178573 0.178573 0.178573 0.178573 0.178573 
0.178573 0.178573 0.178573 0.178573 0.178573 0.178573 0.178573 0.178573 0.178573 
0.178573 0.178573 0.178573 0.178573 0.178573 0.178573 0.178573 0.178573 0.178573 
0.178573 0.178573 0.178573 0.178573 0.178573 0.178573 0.178573 0.178573 0.178573 
0.178573 0.178573 0.178573 0.178573 0.178573 0.178573 0.178573 0.178573 0.178573 
0.178573 0.178573 0.178573 0.178573 0.178573 0.178573 0.178573 0.178573 0.178573 
0.178573 0.178573 0.178573 0.178573 0.178573 0.178573 0.178573 0.178573 0.178573 
0.178573 0.178573 0.178573 0.178573 0.178573 0.178573 0.178573 0.178573 0.178573 
0.178573 0.178573 0.178573 0.178573 0.178573 0.178573 0.178573 0.178573 0.178573 
0.178573 0.178573 0.178573 0.178573 0.178573 0.178573 0.178573 0.178573 0.178573 
0.178573 0.178573 0.178573 0.178573 0.178573 0.178573 0.178573 0.178573 0.178573 
0.178573 0.178573 0.178573 0.178573 0.178573 0.178573 0.178573 0.178573 0.178573 
0.178573 0.178573 0.178573 0.178572 0.178573 0.178573 0.178573 0.178573 0.178573 
0.178573 0.178573 0.178573 0.178573 0.178573 0.178573 0.178573 0.178573 0.178573 
0.178573 0.178573 0.178573 0.178573 0.178573 0.178573 0.178573 0.178573 0.178573 
0.178573 0.178573 0.178573 0.178573 0.178573 0.178573 0.178573 0.178573 0.178573 
0.178573 0.178573 0.178573 0.178573 0.178573 0.178573 0.178573 0.178573 0.178573 
0.178573 0.178573 0.178573 0.178573 0.178573 0.178573 0.178572 0.178572 0.178572 
0.178572 0.178572 0.178572 0.178572 0.178574 0.178572 0.178572 0.178573 0.178573 
0.178573 0.178574 0.178574 0.178574 0.178574 0.178573 0.178573 0.178573 0.178573 
0.178573 0.178573 0.178573 0.178573 0.178573 0.178573 0.178573 0.178573 0.178573 
0.178573 0.178573 0.178573 0.178573 0.178573 0.178573 0.178573 0.178573 0.178573 
0.178573 0.178573 0.178573 0.178573 0.178573 0.178573 0.178573 0.178573 0.178573 
0.178573 0.178573 0.178573 0.178574 0.178574 0.178574 0.178573 0.178574 0.178572 
0.178574 0.178574 0.178575 0.178575 0.178575 0.178575 0.178575 0.178573 0.178575 
0.178574 0.178574 0.178574 0.178573 0.178572 0.178572 0.178571 0.178573 0.178573 
0.178573 0.178573 0.178573 0.178573 0.178573 0.178573 0.178573 0.178573 0.178573 
0.178573 0.178573 0.178573 0.178573 0.178573 0.178573 0.178573 0.178573 0.178573 
0.178573 0.178573 0.178573 0.178573 0.178573 0.178573 0.178573 0.178573 0.178572 
0.178572 0.178572 0.178572 0.178572 0.178574 0.178572 0.178576 0.178572 0.178572 
0.178571 0.178571 0.17857 0.17857 0.178571 0.17857 0.178571 0.178573 0.178573 
0.178573 0.178574 0.178576 0.178576 0.178575 0.178573 0.178572 0.178571 0.178573 
0.178573 0.178573 0.178572 0.178573 0.178573 0.178573 0.178573 0.178573 0.178573 
0.178573 0.178573 0.178573 0.178573 0.178573 0.178573 0.178573 0.178573 0.178573 
0.178573 0.178573 0.178573 0.178573 0.178573 0.178573 0.178581 0.17858 0.178579 
0.178578 0.178576 0.178576 0.178575 0.178761 0.178574 0.178572 0.178572 0.178572 
0.178574 0.178575 0.178584 0.178577 0.178576 0.178575 0.178573 0.178567 0.178568 
0.178572 0.178576 0.178576 0.178572 0.178572 0.178572 0.178573 0.178573 0.178573 
0.178573 0.178573 0.178573 0.178573 0.178573 0.178573 0.178573 0.178573 0.178573 
0.178573 0.178573 0.178573 0.178573 0.178573 0.178573 0.178573 0.179441 0.179331 
0.179231 0.179132 0.179031 0.178923 0.178864 0.178841 0.182825 0.178787 0.178729 
0.178666 0.178601 0.178584 0.178568 0.178567 0.17857 0.17857 0.178583 0.178583 
0.17858 0.178577 0.178571 0.178567 0.178568 0.178576 0.178575 0.178572 0.178572 
0.178573 0.178573 0.178573 0.178573 0.178573 0.178573 0.178573 0.178573 0.178573 
0.178573 0.178573 0.178573 0.178573 0.178573 0.178573 0.178573 0.178573 0.178573 
0.20226 0.200645 0.199214 0.197586 0.195586 0.193249 0.190518 0.188455 0.187802 
0.203724 0.185713 0.183569 0.181518 0.179917 0.179802 0.186627 0.179054 0.17869 
0.178627 0.178558 0.178568 0.178571 0.178586 0.178577 0.178568 0.178571 0.178574 
0.178574 0.178573 0.178573 0.178573 0.178573 0.178573 0.178573 0.178573 0.178573 
0.178573 0.178573 0.178573 0.178573 0.178573 0.178573 0.178573 0.243904 0.24644 
0.243085 0.251122 0.241994 0.241029 0.240007 0.238917 0.237645 0.235893 0.234439 
0.232917 0.242276 0.22808 0.221172 0.211615 0.207064 0.199536 0.187062 0.181437 
0.179972 0.178692 0.178615 0.178548 0.178573 0.178585 0.178575 0.178571 0.178572 
0.178573 0.178574 0.178573 0.178573 0.178573 0.178573 0.178573 0.178573 0.178573 
0.178573 0.178573 0.178573 0.178573 0.178573 0.251535 0.251602 0.251594 0.251512 
0.253225 0.251401 0.251256 0.251072 0.250793 0.250419 0.249856 0.249603 0.248953 
0.247569 0.245617 0.243133 0.242172 0.246239 0.23352 0.214076 0.213455 0.216507 
0.186839 0.181175 0.179015 0.178578 0.178541 0.178577 0.178581 0.178574 0.178561 
0.178572 0.178573 0.178573 0.178573 0.178573 0.178573 0.178573 0.178573 0.178573 
0.178573 0.178573 0.178573 0.178573 0.178573 0.178573 0.254059 0.254245 0.254256 
0.254252 0.254253 0.255314 0.254218 0.25413 0.253979 0.253721 0.253337 0.252769 
0.252746 0.252925 0.25192 0.250729 0.249131 0.248822 0.246859 0.243238 0.241112 
0.229857 0.20165 0.192236 0.179183 0.179121 0.179621 0.178576 0.178558 0.178558 
0.178577 0.178574 0.178566 0.178573 0.178573 0.178573 0.178573 0.178573 0.178573 
0.178573 0.178573 0.178573 0.178573 0.178573 0.178573 0.256759 0.256981 0.257069 
0.257117 0.257136 0.257143 0.257853 0.257106 0.25697 0.25671 0.256282 0.255618 
0.255187 0.254729 0.253509 0.251946 0.251019 0.249876 0.247619 0.246065 0.243677 
0.23236 0.231187 0.235581 0.187856 0.185998 0.178853 0.178774 0.178573 0.178565 
0.178565 0.178575 0.178573 0.178573 0.178572 0.178572 0.178573 0.178573 0.178573 
0.178573 0.178573 0.178573 0.178573 0.259558 0.259816 0.26004 0.26019 0.260325 
0.260368 0.260375 0.261069 0.260301 0.260076 0.259644 0.258903 0.25787 0.257828 
0.258069 0.256363 0.254501 0.252698 0.252056 0.254046 0.249441 0.247368 0.246094 
0.241356 0.240063 0.219363 0.209084 0.181697 0.180559 0.178572 0.178625 0.178611 
0.17857 0.178575 0.178573 0.178574 0.178574 0.178573 0.178573 0.178573 0.178573 
0.178573 0.178573 0.178573 0.262271 0.262598 0.263015 0.263284 0.263525 0.26364 
0.263612 0.263595 0.265002 0.263337 0.26282 0.261931 0.260659 0.260046 0.258955 
0.25682 0.254129 0.2541 0.251042 0.247941 0.247262 0.248289 0.243065 0.241412 
0.23429 0.220734 0.192884 0.187025 0.178586 0.179086 0.17894 0.178567 0.178568 
0.178573 0.178573 0.178573 0.178573 0.178573 0.178573 0.178573 0.178573 0.178573 
0.178573 0.178573 0.265495 0.265956 0.26654 0.266945 0.267264 0.267379 0.267281 
0.267104 0.266884 0.269937 0.266146 0.264973 0.263369 0.261846 0.261297 0.262871 
0.258772 0.255765 0.254976 0.252374 0.248304 0.248294 0.243839 0.242059 0.238301 
0.229065 0.214115 0.198851 0.178625 0.180944 0.180056 0.178619 0.178578 0.178632 
0.178574 0.17857 0.178572 0.178573 0.178574 0.178574 0.178573 0.178573 0.178573 
0.178573 0.270248 0.277051 0.270886 0.271575 0.272013 0.272199 0.272092 0.271657 
0.27084 0.270672 0.269651 0.268023 0.265971 0.263475 0.263223 0.260571 0.257249 
0.255588 0.253498 0.249321 0.248661 0.244737 0.242455 0.239774 0.233808 0.227495 
0.207043 0.185993 0.182933 0.178596 0.178795 0.178772 0.178574 0.17856 0.178565 
0.178575 0.178574 0.178573 0.178573 0.178573 0.178573 0.277392 0.277427 0.278352 
0.287917 0.278891 0.279004 0.278741 0.277982 0.276747 0.27512 0.273662 0.273173 
0.274659 0.270916 0.268334 0.265389 0.264103 0.262096 0.258467 0.255908 0.254545 
0.250292 0.248979 0.245667 0.242689 0.24054 0.235538 0.232512 0.212828 0.196002 
0.188312 0.178687 0.179326 0.1792 0.178572 0.178578 0.178572 0.178572 0.178574 
0.178569 0.178573 0.178573 0.178573 0.178573 0.28866 0.290964 0.29082 0.29066 
0.297992 0.289637 0.287614 0.285206 0.28252 0.279635 0.276612 0.275703 0.273529 
0.270354 0.267001 0.264537 0.263421 0.259495 0.255859 0.255279 0.255664 0.250978 
0.248994 0.246299 0.242736 0.241158 0.236452 0.234737 0.217843 0.206616 0.193512 
0.178786 0.180329 0.179877 0.178599 0.178577 0.178573 0.178568 0.178568 0.178573 
0.178574 0.178574 0.178573 0.298639 0.306147 0.302906 0.301355 0.299531 0.295326 
0.291211 0.287115 0.283109 0.279174 0.276096 0.275335 0.271667 0.268028 0.264379 
0.264341 0.260333 0.25586 0.255595 0.251392 0.248827 0.246845 0.242686 0.24171 
0.236963 0.236035 0.222869 0.216496 0.1987 0.179071 0.18313 0.181763 0.178716 
0.178619 0.17857 0.178562 0.178563 0.178573 0.178575 0.178575 0.178573 
velocity_u 1 935 float
1 1 1 1 1 1 1 1 1 
1 1 1 1 1 1 1 1 1 
1 1 1 1 1 1 1 1 1 
1 1 1 1 1 1 1 1 1 
1 1 1 1 1 1 1 1 1 
1 1 1 1 1 1 1 1 1 
1 1 1 1 1 1 1 1 0.999999 
1 1 1 1 1 1 1 1 1 
1 1 1 1 1 1 1 1 1 
1 1 1 1 1 1 1 1 1 
1 1 1 1 1 1 1 1 1 
1 1 1 1 1 1 1 1 1 
1 1 1 1 0.999999 0.999999 0.999999 0.999999 0.999999 
0.999999 0.999999 0.999999 1 0.999999 0.999999 1 1 1 
1 1 1 1 1 1 1 1 1 
1 1 1 1 1 1 1 1 1 
1 1 1 1 1 1 1 1 1 
1 1 1 1 1 1 1 1 1 
1 1 1 0.999999 0.999999 1 1 1 1 
1 1 1 1 0.999997 1 1 1 1 
1 0.999998 0.999999 0.999999 0.999999 0.999999 1 1 1 
1 1 1 1 1 1 1 1 1 
1 1 1 1 1 1 1 1 1 
1 1 1 1 1 1 1 1 1 
1 1 1 1 1 1 0.999996 0.999999 0.999994 
0.999999 0.999999 0.999998 0.999998 0.999996 0.999996 0.999996 0.999998 0.999996 
0.999997 0.999998 0.999998 1 1 1 1 1 1 
1 1 1 1 1 1 1 1 1 
1 1 1 1 1 1 1 1 1 
1 1 1 1 1 1 1 1 0.999995 
0.999994 0.999993 0.999993 0.999994 1 0.999994 1.00001 0.999995 0.999997 
0.999998 0.999999 1 1 1 1 1 1 1 
0.999998 0.999998 0.999996 0.999996 0.999998 1 1 1 0.999999 
0.999999 1 1 1 1 1 1 1 1 
1 1 1 1 1 1 1 1 1 
1 1 1 1 1 1 0.999997 1 1 
1.00001 1.00001 1.00001 1.00001 0.999754 1.00001 1.00001 1.00001 1.00001 
1 0.999999 0.999974 0.999993 0.999991 0.999994 0.999998 1.00001 1.00001 
0.999999 0.999996 0.999996 1 1 1 1 1 1 
1 1 1 1 1 1 1 1 1 
1 1 1 1 1 1 1 0.998868 0.999009 
0.999134 0.999261 0.999394 0.999534 0.999611 0.999642 0.994908 0.999712 0.999786 
0.999865 0.999943 0.999964 0.999992 1.00001 1.00001 1.00001 0.999991 0.999989 
0.99999 0.999993 1.00001 1.00001 1.00001 0.999996 0.999997 1 1 
1 1 1 1 1 1 1 1 1 
1 1 1 1 1 1 1 1 1 
0.973138 0.974931 0.976552 0.978276 0.980414 0.982956 0.985938 0.988173 0.988916 
0.972071 0.991301 0.993811 0.996271 0.998247 0.998393 0.990828 0.999356 0.999834 
0.999912 1.00001 1.00001 1.00001 0.999984 0.999995 1.00001 1 0.999999 
0.999999 1 1 1 1 1 1 1 1 
1 1 1 1 1 1 1 0.932235 0.930616 
0.932657 0.927181 0.931403 0.931024 0.932117 0.933846 0.936025 0.938129 0.939684 
0.941312 0.934927 0.946287 0.953287 0.963287 0.967915 0.975856 0.990009 0.99647 
0.998249 0.999839 0.999936 1.00003 1 0.999987 0.999996 1 1 
1 0.999999 1 1 1 1 1 1 1 
1 1 1 1 1 0.92741 0.926855 0.926843 0.926844 
0.925696 0.927057 0.92723 0.927522 0.927959 0.928858 0.929986 0.930495 0.931324 
0.932733 0.934505 0.93525 0.935658 0.931599 0.942412 0.961722 0.962348 0.959548 
0.990607 0.996958 0.999479 0.999985 1.00003 0.999994 0.99999 0.999998 1.00002 
1 1 1 1 1 1 1 1 1 
1 1 1 1 1 1 0.924686 0.924528 0.925024 
0.925251 0.925445 0.924714 0.925555 0.925673 0.925756 0.926159 0.926538 0.926888 
0.926892 0.926675 0.927028 0.92748 0.928613 0.928997 0.931671 0.935231 0.936634 
0.945391 0.974998 0.985057 0.999326 0.999394 0.998862 0.999997 1.00002 1.00002 
0.999996 0.999999 1.00001 1 1 1 1 1 1 
1 1 1 1 1 1 0.921973 0.922084 0.922797 
0.923423 0.923603 0.923605 0.92292 0.923441 0.923246 0.923269 0.923303 0.923386 
0.923482 0.923635 0.924484 0.926208 0.927517 0.928989 0.930546 0.931858 0.934777 
0.945695 0.946718 0.94228 0.990117 0.992072 0.999698 0.999781 1 1.00001 
1.00001 0.999998 0.999999 1 1 1 1 1 1 
1 1 1 1 0.919107 0.919373 0.919924 0.920351 0.920449 
0.92038 0.920315 0.919531 0.919942 0.919662 0.919515 0.91961 0.920027 0.920055 
0.91979 0.921389 0.923807 0.92609 0.92676 0.92457 0.928317 0.930913 0.932792 
0.936421 0.937454 0.956195 0.967223 0.996744 0.997929 0.999997 0.999945 0.999959 
1 0.999999 1 0.999999 0.999999 1 1 1 1 
1 1 1 0.916296 0.916514 0.91676 0.916917 0.916807 0.916557 
0.916379 0.916256 0.914542 0.915905 0.915786 0.916114 0.917014 0.917551 0.918724 
0.921591 0.924477 0.924498 0.926585 0.930727 0.931671 0.930574 0.935269 0.936936 
0.945455 0.958895 0.985299 0.991267 0.999981 0.999468 0.999619 1 1 
1 1 1 1 1 1 1 1 1 
1 1 0.912839 0.912817 0.91266 0.912457 0.912219 0.911953 0.911745 
0.911684 0.911596 0.907891 0.911791 0.912611 0.914138 0.915747 0.916376 0.914835 
0.919579 0.922398 0.922974 0.925232 0.930558 0.930567 0.934464 0.936652 0.941083 
0.94906 0.963302 0.979311 0.999947 0.997555 0.998469 0.999953 0.999992 0.999939 
0.999999 1 1 1 0.999999 0.999999 1 1 1 
1 0.90797 0.900466 0.90749 0.907096 0.906735 0.906488 0.906353 0.906465 
0.906796 0.906895 0.90762 0.909167 0.911398 0.914246 0.914561 0.917653 0.920513 
0.921956 0.924214 0.929358 0.929953 0.93342 0.936198 0.93915 0.945033 0.951395 
0.971385 0.992401 0.995532 0.999973 0.999768 0.999793 0.999999 1.00001 1.00001 
0.999998 0.999999 1 1 1 1 0.900093 0.900055 0.899078 
0.888794 0.898314 0.898137 0.89855 0.899234 0.900283 0.901648 0.902937 0.90343 
0.901734 0.90592 0.908896 0.912273 0.913754 0.915863 0.918876 0.921595 0.923334 
0.928221 0.929398 0.932305 0.935739 0.937992 0.942904 0.945987 0.965185 0.98206 
0.989958 0.999884 0.999232 0.999361 1 0.999995 1 1 0.999999 
1 1 0.999999 0.999999 1 0.888786 0.885551 0.885847 0.886423 
0.872398 0.887273 0.88897 0.891145 0.893664 0.896461 0.899544 0.900529 0.903055 
0.906739 0.910497 0.913121 0.914215 0.917658 0.922164 0.922943 0.922641 0.927378 
0.929093 0.931435 0.935448 0.937101 0.941923 0.943737 0.96035 0.971638 0.984844 
0.999781 0.998202 0.998665 0.999972 0.999996 0.999999 1 1 1 
0.999999 0.999999 1 0.876074 0.85334 0.863093 0.867071 0.871968 0.878149 
0.883083 0.887716 0.892214 0.896625 0.900176 0.901073 0.905267 0.909199 0.912821 
0.912858 0.91672 0.92248 0.922768 0.92677 0.928981 0.930777 0.935296 0.936309 
0.941271 0.942225 0.95463 0.96084 0.979228 0.999494 0.995372 0.996761 0.999854 
0.999952 1 1.00001 1.00001 1 0.999998 0.999998 1 
velocity_v 1 935 float
-3.14024e-07 4.3239e-07 -2.18162e-07 -1.42716e-07 -9.23746e-08 -2.35976e-09 6.06384e-08 1.03241e-07 1.17856e-07 
9.59979e-08 1.44145e-07 4.07123e-08 1.72301e-07 1.79329e-07 1.93216e-07 1.88251e-07 1.47829e-07 1.12608e-07 
-3.94745e-07 1.31698e-08 -4.62686e-08 -9.69432e-08 -3.95616e-08 -1.52697e-07 -1.52652e-07 -9.53266e-08 -1.60331e-08 
3.00178e-08 1.08924e-08 -6.15132e-08 -3.64788e-08 -8.28876e-08 -3.35298e-08 -6.70546e-08 -9.61792e-08 -9.05545e-08 
-6.44838e-08 -8.12686e-08 -6.2596e-08 -1.77681e-08 -4.32009e-08 -3.37051e-08 -3.55271e-08 -4.18454e-08 -4.46035e-08 
-3.28899e-08 4.59934e-08 -3.83929e-08 -4.04951e-08 -1.11295e-08 -3.62306e-08 -1.1535e-08 -3.45074e-08 3.09975e-08 
-2.25931e-08 6.70994e-07 7.01013e-07 6.97377e-07 5.92779e-07 6.43984e-07 -4.32875e-08 5.56462e-07 -6.99823e-07 
4.63627e-07 3.64006e-07 2.06314e-07 7.02494e-08 -3.2743e-08 -7.3954e-08 -9.89608e-08 -2.20104e-07 -1.15745e-07 
-3.32437e-07 -4.45444e-07 -4.46853e-07 -3.06462e-07 5.99038e-07 -6.43339e-08 -1.18404e-09 1.44679e-07 1.7733e-07 
1.40702e-07 -7.13987e-09 -6.5182e-08 -6.67774e-08 -6.45973e-09 -3.71664e-08 -3.62177e-08 7.52063e-10 -4.09017e-08 
7.57004e-09 -1.63064e-08 -5.76803e-08 -3.99114e-08 4.49474e-09 -5.51359e-08 -1.76484e-08 -4.69331e-08 -8.88872e-09 
-5.44034e-08 -5.54161e-08 -4.87972e-08 -5.49403e-08 -1.83645e-08 -5.0038e-08 3.40146e-09 -5.23986e-08 -1.46231e-09 
-2.55864e-08 -2.20291e-08 -3.28119e-08 -2.24663e-08 -9.46074e-07 -1.10588e-06 -1.21808e-06 -1.23184e-06 -1.23181e-06 
-1.21536e-06 -9.7834e-07 -1.12586e-06 3.7964e-07 -9.83857e-07 -8.00398e-07 -5.38601e-07 -1.58481e-07 -8.22759e-08 
1.93521e-07 4.82785e-08 4.53076e-07 6.3235e-07 6.32571e-07 3.37006e-07 -1.33069e-07 -1.5707e-07 -1.35123e-07 
-3.67067e-07 -2.206e-07 1.90398e-08 6.45323e-09 -8.87511e-09 -1.81561e-08 7.24497e-09 2.32432e-08 3.00404e-08 
1.03431e-08 1.0697e-08 -5.22147e-09 2.30445e-08 9.71708e-09 8.48241e-08 -2.6179e-08 -1.35236e-08 -9.49791e-09 
2.41108e-08 1.03052e-08 -3.0885e-08 -3.05415e-08 -2.58212e-08 -2.2814e-08 -1.79539e-08 -1.77684e-08 -2.80252e-08 
-2.05187e-08 -2.31564e-08 -2.21634e-08 1.00713e-06 1.05e-06 1.27701e-06 1.4353e-06 1.59949e-06 1.7092e-06 
1.78543e-06 1.78095e-06 1.68111e-06 1.71327e-06 -6.10647e-07 1.50298e-06 1.04184e-06 2.21343e-07 -1.03605e-07 
-6.41389e-07 -3.39213e-07 -1.17003e-06 -1.43817e-06 -1.36918e-06 -1.66363e-07 -3.21871e-07 3.27087e-07 6.11434e-07 
-5.90596e-08 -1.078e-06 -1.56721e-07 -8.89577e-08 -5.11445e-08 -8.11025e-08 -8.20477e-09 -8.38948e-08 2.3319e-09 
-2.54323e-08 -3.73272e-08 -2.1397e-08 4.16612e-08 -1.50502e-08 7.25276e-08 9.18014e-08 8.97017e-08 2.79528e-08 
6.4682e-08 5.15985e-08 3.28345e-08 -1.09827e-08 -1.03048e-08 1.41897e-07 -2.70535e-08 -6.08874e-08 -2.03784e-08 
-2.80756e-08 -2.56889e-08 -1.5095e-08 2.61436e-06 1.69826e-06 2.51747e-06 -2.70401e-06 1.93888e-06 -6.56852e-06 
1.36766e-06 6.8611e-07 3.67371e-08 -7.65172e-07 -1.62153e-06 -2.10098e-06 -2.36476e-06 8.45358e-07 -2.69105e-06 
-2.28164e-06 -5.26222e-07 -2.04482e-07 8.17651e-07 2.0957e-06 2.10141e-06 1.16034e-06 -1.20699e-06 -1.20041e-06 
7.02534e-08 1.36212e-07 -5.72136e-08 -1.24645e-07 -1.32607e-07 -1.03927e-07 1.42835e-08 -1.35353e-08 -1.23488e-08 
4.82738e-08 7.5835e-09 -1.00577e-08 -9.97325e-08 4.61647e-08 8.61285e-08 3.81558e-08 1.02841e-07 1.42767e-07 
1.51109e-07 1.50817e-07 5.38909e-08 1.01671e-07 1.51808e-08 1.00532e-07 5.63093e-08 5.4767e-08 -1.29479e-05 
-1.02033e-05 -7.47231e-06 -7.09809e-06 -5.73932e-06 1.04824e-06 -4.35416e-06 1.01086e-05 -2.78507e-06 -8.01322e-07 
1.39096e-06 4.04521e-06 6.09034e-06 6.65818e-06 -1.15545e-06 7.22626e-06 5.11951e-06 1.6408e-06 1.27639e-06 
7.97987e-07 -1.41356e-06 -2.02485e-06 -1.91821e-06 -1.59772e-06 7.66303e-07 6.29194e-07 -4.65213e-07 -3.22009e-07 
5.3604e-08 1.36439e-07 -9.29032e-07 1.09705e-07 8.36374e-08 2.02173e-07 -3.24222e-08 -6.35531e-08 -3.28826e-08 
-1.15828e-07 -1.1515e-07 5.51555e-08 -6.16999e-09 1.76933e-09 3.2621e-08 7.79972e-08 9.55246e-08 7.18141e-08 
1.47888e-08 1.07603e-08 -2.40945e-08 -2.17402e-08 4.05016e-08 3.5638e-08 4.94224e-05 3.9777e-05 3.07868e-05 
2.11321e-05 1.11782e-05 1.05904e-05 7.41643e-06 0.000309938 3.07604e-06 -1.36129e-06 -6.5744e-06 -1.1956e-05 
-1.47929e-05 -1.48167e-05 4.03431e-05 -1.16713e-05 -3.69086e-06 -1.2092e-06 6.54952e-07 1.56877e-06 8.54346e-07 
-1.45814e-07 4.89445e-07 8.50872e-07 -4.83523e-07 -9.85959e-07 -9.83931e-07 3.4007e-08 2.06188e-07 2.07769e-07 
2.69148e-08 2.37548e-08 3.89674e-08 4.83229e-08 -1.0435e-08 -1.75141e-09 4.45468e-08 4.23993e-08 4.68551e-08 
-2.21265e-08 7.11028e-08 6.88241e-08 1.57102e-09 -5.17888e-08 -5.46346e-08 3.5056e-08 0.00141983 0.00124232 
0.00108294 0.000920887 0.000752646 0.000573744 0.000474887 0.000436506 0.00647072 0.000351877 0.000263474 
0.000173266 9.29156e-05 7.49669e-05 5.13989e-05 1.36601e-05 -1.02186e-06 -1.4224e-06 1.92812e-05 -5.47276e-07 
1.99664e-06 1.46807e-06 6.45439e-08 -1.72898e-06 -1.60903e-06 1.84858e-06 1.56294e-06 -9.67867e-07 -8.65709e-07 
9.23649e-08 -8.48945e-10 5.64267e-08 6.92562e-08 6.28703e-08 2.10655e-08 3.58783e-08 4.05889e-08 4.19275e-08 
8.27538e-08 2.27611e-08 4.08151e-08 1.21827e-07 1.00797e-07 8.96185e-08 3.77469e-08 1.08254e-07 4.94953e-09 
0.0357488 0.0332412 0.0311316 0.0287687 0.0257406 0.0221745 0.0180623 0.0150059 0.0140273 
0.0369498 0.0109265 0.00768822 0.00457494 0.00212063 0.0019415 0.0121026 0.000771425 0.000191796 
0.000110292 2.2796e-05 -1.39423e-06 -2.37813e-07 4.84958e-06 3.68018e-06 -1.97143e-06 -9.64321e-07 2.68884e-06 
1.79205e-06 -5.5438e-08 -2.03417e-07 7.78433e-08 9.88897e-09 1.39691e-08 9.9882e-08 4.31275e-08 1.4127e-08 
1.10775e-07 1.0078e-07 1.22073e-07 1.37693e-08 3.70122e-08 3.62745e-08 -2.00597e-08 0.0945881 0.0976013 
0.0943781 0.103329 0.094233 0.0935038 0.0917875 0.0893341 0.0864212 0.0832878 0.0812425 
0.0791323 0.0917312 0.0719529 0.06246 0.0490515 0.0427229 0.0317012 0.0125617 0.00424006 
0.00207598 0.000191167 8.70064e-05 -1.01032e-05 -6.24925e-06 2.98011e-06 -1.54035e-07 -4.46282e-06 -2.44869e-06 