# vtk DataFile Version 5.1
vtk output
ASCII
DATASET POLYDATA
POINTS 1096 float
1.78208 1.06792 -0.5 1.78459 1.06541 -0.5 1.78736 1.06264 -0.5 
1.79041 1.05959 -0.5 1.79326 1.05674 -0.5 1.79377 1.05623 -0.5 
1.79328 1.05613 -0.49941 1.79747 1.05253 -0.5 1.80153 1.04847 -0.5 
1.806 1.044 -0.5 1.81089 1.03911 -0.5 1.8156 1.0344 -0.5 
1.81625 1.03375 -0.5 1.81565 1.03364 -0.49929 1.8221 1.0279 -0.5 
1.82849 1.02151 -0.5 1.83544 1.01456 -0.5 1.83807 1.01193 -0.5 
1.84299 1.00701 -0.5 1.85115 0.998847 -0.5 1.85957 0.990434 -0.5 
1.8596 0.989973 -0.499573 1.77958 1.06742 -0.497 1.78208 1.06492 -0.497 
1.78485 1.06215 -0.497 1.7879 1.0591 -0.497 1.79126 1.05574 -0.497 
1.79338 1.05362 -0.497 1.79495 1.05205 -0.497 1.79345 1.05176 -0.49521 
1.79901 1.04799 -0.497 1.80347 1.04353 -0.497 1.80835 1.03865 -0.497 
1.8137 1.0333 -0.497 1.8158 1.0312 -0.497 1.81954 1.02746 -0.497 
1.82591 1.02109 -0.497 1.83285 1.01415 -0.497 1.8383 1.0087 -0.497 
1.84038 1.00662 -0.497 1.83847 1.00634 -0.49481 1.84852 0.998481 -0.497 
1.85732 0.989682 -0.497 1.85981 0.987194 -0.497 1.7767 1.06685 -0.493548 
1.7792 1.06434 -0.493548 1.78197 1.06158 -0.493548 1.78501 1.05853 -0.493548 
1.78837 1.05518 -0.493548 1.79205 1.05149 -0.493548 1.79351 1.05004 -0.493548 
1.7961 1.04745 -0.493548 1.79362 1.04698 -0.4906 1.80055 1.043 -0.493548 
1.80542 1.03813 -0.493548 1.81076 1.03279 -0.493548 1.81602 1.02753 -0.493548 
1.81659 1.02696 -0.493548 1.81606 1.02687 -0.49293 1.82294 1.02061 -0.493548 
1.82986 1.01369 -0.493548 1.83737 1.00618 -0.493548 1.83857 1.00498 -0.493548 
1.84549 0.998061 -0.493548 1.85426 0.989291 -0.493548 1.86008 0.983465 -0.493548 
1.86038 0.979465 -0.489845 1.77339 1.06619 -0.489579 1.77206 1.06593 -0.48799 
1.77589 1.06369 -0.489579 1.77865 1.06092 -0.489579 1.78169 1.05789 -0.489579 
1.78504 1.05454 -0.489579 1.78872 1.05086 -0.489579 1.79276 1.04682 -0.489579 
1.79366 1.04592 -0.489579 1.7972 1.04238 -0.489579 1.79381 1.04175 -0.48556 
1.80206 1.03752 -0.489579 1.80738 1.0322 -0.489579 1.81319 1.02639 -0.489579 
1.81627 1.02331 -0.489579 1.81953 1.02005 -0.489579 1.81649 1.01955 -0.48604 
1.82642 1.01316 -0.489579 1.83391 1.00567 -0.489579 1.83888 1.0007 -0.489579 
1.842 0.997577 -0.489579 1.83913 0.997179 -0.486309 1.85074 0.988842 -0.489579 
1.86014 0.979437 -0.489579 1.8604 0.979178 -0.489579 1.76958 1.06544 -0.485022 
1.77207 1.06295 -0.485022 1.77209 1.06293 -0.485022 1.77207 1.06293 -0.485 
1.77485 1.06017 -0.485022 1.77209 1.05963 -0.48172 1.77788 1.05714 -0.485022 
1.78122 1.0538 -0.485022 1.78489 1.05013 -0.485022 1.78892 1.0461 -0.485022 
1.79336 1.04167 -0.485022 1.79383 1.04119 -0.485022 1.7982 1.03682 -0.485022 
1.79402 1.03607 -0.48009 1.8035 1.03152 -0.485022 1.80929 1.02573 -0.485022 
1.81561 1.01941 -0.485022 1.81655 1.01847 -0.485022 1.82248 1.01255 -0.485022 
1.82993 1.00509 -0.485022 1.838 0.997024 -0.485022 1.83923 0.995792 -0.485022 
1.8467 0.988326 -0.485022 1.85606 0.978966 -0.485022 1.86076 0.97426 -0.485022 
1.76522 1.06457 -0.479796 1.76773 1.06207 -0.479796 1.77048 1.05931 -0.479796 
1.7721 1.0577 -0.479796 1.77351 1.05629 -0.479796 1.7721 1.05601 -0.47811 
1.77684 1.05295 -0.479796 1.77211 1.05204 -0.47415 1.78051 1.04929 -0.479796 
1.78452 1.04527 -0.479796 1.78894 1.04086 -0.479796 1.79377 1.03603 -0.479796 
1.79403 1.03577 -0.479796 1.79905 1.03074 -0.479796 1.79424 1.0299 -0.47414 
1.80482 1.02498 -0.479796 1.81111 1.01868 -0.479796 1.81689 1.01291 -0.479796 
1.81795 1.01184 -0.479796 1.81696 1.01169 -0.47865 1.82537 1.00443 -0.479796 
1.8334 0.996397 -0.479796 1.83964 0.990161 -0.479796 1.84206 0.987735 -0.479796 
1.83983 0.98745 -0.47728 1.85137 0.978425 -0.479796 1.86118 0.96862 -0.479796 
1.86119 0.968424 -0.479614 1.76023 1.06358 -0.473812 1.76273 1.06108 -0.473812 
1.76548 1.05833 -0.473812 1.7685 1.05531 -0.473812 1.77183 1.05199 -0.473812 
1.77211 1.0517 -0.473812 1.77548 1.04833 -0.473812 1.77212 1.04769 -0.46981 
1.77948 1.04433 -0.473812 1.78388 1.03993 -0.473812 1.7887 1.03512 -0.473812 
1.79396 1.02985 -0.473812 1.79425 1.02956 -0.473812 1.7997 1.02411 -0.473812 
1.79447 1.02323 -0.4677 1.80596 1.01785 -0.473812 1.81277 1.01105 -0.473812 
1.81726 1.00655 -0.473812 1.82015 1.00366 -0.473812 1.81745 1.00327 -0.47072 
1.82813 0.995679 -0.473812 1.83675 0.987063 -0.473812 1.8401 0.983717 -0.473812 
1.84601 0.977806 -0.473812 1.84056 0.977178 -0.467738 1.85593 0.967885 -0.473812 
1.86165 0.96216 -0.473812 1.86204 0.956893 -0.468933 1.75453 1.06245 -0.466971 
1.75123 1.06179 -0.46302 1.75702 1.05995 -0.466971 1.75111 1.05878 -0.45989 
1.75976 1.05721 -0.466971 1.76278 1.05419 -0.466971 1.76609 1.05088 -0.466971 
1.76973 1.04724 -0.466971 1.77213 1.04484 -0.466971 1.77372 1.04325 -0.466971 
1.77213 1.04295 -0.46508 1.7781 1.03887 -0.466971 1.77213 1.03777 -0.4599 
1.78289 1.03408 -0.466971 1.78813 1.02884 -0.466971 1.79385 1.02313 -0.466971 
1.7945 1.02248 -0.466971 1.80007 1.0169 -0.466971 1.79471 1.01603 -0.46074 
1.80684 1.01013 -0.466971 1.81417 1.0028 -0.466971 1.81768 0.999291 -0.466971 
1.82211 0.994857 -0.466971 1.81797 0.994292 -0.462262 1.83067 0.986301 -0.466971 
1.83987 0.9771 -0.466971 1.84062 0.976351 -0.466971 1.84972 0.96725 -0.466971 
1.86024 0.956734 -0.466971 1.8622 0.954775 -0.466971 1.74801 1.06115 -0.459165 
1.7505 1.05866 -0.459165 1.75108 1.05808 -0.459165 1.75324 1.05593 -0.459165 
1.75097 1.05548 -0.45645 1.75625 1.05292 -0.459165 1.75082 1.05186 -0.45268 
1.75955 1.04962 -0.459165 1.76317 1.04599 -0.459165 1.76715 1.04202 -0.459165 
1.77151 1.03766 -0.459165 1.77213 1.03703 -0.459165 1.77627 1.03289 -0.459165 
1.77213 1.03215 -0.45428 1.78148 1.02769 -0.459165 1.78716 1.02201 -0.459165 
1.79335 1.01581 -0.459165 1.79476 1.0144 -0.459165 1.80007 1.00909 -0.459165 
1.79497 1.00831 -0.45328 1.80735 1.00181 -0.459165 1.81524 0.993924 -0.459165 
1.81816 0.991005 -0.459165 1.82373 0.98543 -0.459165 1.81852 0.984776 -0.453296 
1.83286 0.976302 -0.459165 1.84123 0.967937 -0.459165 1.84264 0.966525 -0.459165 
1.84134 0.966392 -0.457732 1.85306 0.9561 -0.459165 1.86282 0.94635 -0.459165 
1.86292 0.944925 -0.457845 1.7406 1.05968 -0.450279 1.74309 1.05719 -0.450279 
1.74581 1.05447 -0.450279 1.74881 1.05147 -0.450279 1.75072 1.04956 -0.450279 
1.7521 1.04818 -0.450279 1.75065 1.0479 -0.44855 1.75571 1.04457 -0.450279 
1.75047 1.04358 -0.44405 1.75966 1.04062 -0.450279 1.76399 1.03629 -0.450279 
1.76873 1.03155 -0.450279 1.77213 1.02815 -0.450279 1.7739 1.02638 -0.450279 
1.77213 1.02607 -0.4482 1.77955 1.02073 -0.450279 1.77212 1.01949 -0.44161 
1.78569 1.01459 -0.450279 1.79236 1.00791 -0.450279 1.79508 1.0052 -0.450279 
1.79959 1.00069 -0.450279 1.79525 1.00006 -0.44531 1.80741 0.992869 -0.450279 
1.81584 0.984443 -0.450279 1.81871 0.981571 -0.450279 1.82488 0.975394 -0.450279 
1.81911 0.974737 -0.443847 1.83457 0.965708 -0.450279 1.84191 0.958369 -0.450279 
1.8449 0.955379 -0.450279 1.84214 0.955135 -0.447275 1.85587 0.944406 -0.450279 
1.73219 1.058 -0.440188 1.73036 1.05764 -0.438 1.73466 1.05553 -0.440188 
1.73008 1.05462 -0.4347 1.73738 1.05281 -0.440188 1.72977 1.05131 -0.43108 
1.74036 1.04983 -0.440188 1.74364 1.04655 -0.440188 1.74722 1.04297 -0.440188 
1.75031 1.03988 -0.440188 1.75115 1.03904 -0.440188 1.75026 1.03887 -0.43913 
1.75546 1.03473 -0.440188 1.75003 1.03374 -0.43377 1.76016 1.03002 -0.440188 
1.7653 1.02489 -0.440188 1.7709 1.01929 -0.440188 1.77212 1.01807 -0.440188 
1.77699 1.0132 -0.440188 1.7721 1.01242 -0.43452 1.7836 1.00659 -0.440188 
1.79077 0.999418 -0.440188 1.79542 0.994763 -0.440188 1.79852 0.991671 -0.440188 
1.79554 0.99127 -0.43681 1.80686 0.98333 -0.440188 1.81582 0.974367 -0.440188 
1.81933 0.970857 -0.440188 1.82541 0.964782 -0.440188 1.81971 0.964206 -0.433916 
1.83562 0.954564 -0.440188 1.84269 0.947499 -0.440188 1.84647 0.943714 -0.440188 
1.84298 0.943457 -0.436437 1.72266 1.05611 -0.428762 1.72512 1.05364 -0.428762 
1.72783 1.05093 -0.428762 1.72957 1.04919 -0.428762 1.7308 1.04797 -0.428762 
1.72943 1.0477 -0.42713 1.73405 1.04471 -0.428762 1.72906 1.04375 -0.42281 
1.73761 1.04115 -0.428762 1.72864 1.03945 -0.41809 1.74152 1.03724 -0.428762 
1.74579 1.03297 -0.428762 1.74981 1.02895 -0.428762 1.75046 1.0283 -0.428762 
1.74978 1.02818 -0.42796 1.75555 1.02321 -0.428762 1.74951 1.02217 -0.42168 
1.7611 1.01766 -0.428762 1.76713 1.01163 -0.428762 1.77209 1.00667 -0.428762 
1.77368 1.00508 -0.428762 1.77209 1.00484 -0.42693 1.78077 0.997987 -0.428762 
1.77207 0.996741 -0.418811 1.78844 0.990323 -0.428762 1.79581 0.982954 -0.428762 
1.79669 0.98207 -0.428762 1.79584 0.981964 -0.427804 1.80555 0.973213 -0.428762 
1.79616 0.972157 -0.418317 1.81503 0.963737 -0.428762 1.82002 0.958738 -0.428762 
1.82512 0.953642 -0.428762 1.82034 0.953223 -0.423563 1.83583 0.942931 -0.428762 
1.7119 1.05397 -0.415865 1.70956 1.0535 -0.41306 1.71436 1.05151 -0.415865 
1.70911 1.05047 -0.40958 1.71705 1.04882 -0.415865 1.70861 1.04716 -0.40577 
1.72 1.04587 -0.415865 1.70807 1.04355 -0.40162 1.72323 1.04263 -0.415865 
1.72677 1.0391 -0.415865 1.72845 1.03742 -0.415865 1.73065 1.03522 -0.415865 
1.7282 1.03476 -0.41296 1.73488 1.03098 -0.415865 1.72771 1.02968 -0.40739 
1.7395 1.02636 -0.415865 1.74455 1.02132 -0.415865 1.74925 1.01661 -0.415865 
1.75004 1.01583 -0.415865 1.74921 1.01569 -0.4149 1.756 1.00986 -0.415865 
1.74888 1.00873 -0.40761 1.76248 1.00339 -0.415865 1.76949 0.996375 -0.415865 
1.77206 0.993805 -0.415865 1.77706 0.988806 -0.415865 1.77204 0.988137 -0.410177 
1.78521 0.980658 -0.415865 1.79395 0.971911 -0.415865 1.79624 0.969624 -0.415865 
1.8033 0.962563 -0.415865 1.79649 0.961881 -0.408371 1.81326 0.952606 -0.415865 
1.82081 0.945059 -0.415865 1.82382 0.942047 -0.415865 1.82099 0.941839 -0.412829 
1.6998 1.05156 -0.401362 1.68893 1.0494 -0.38833 1.70225 1.04911 -0.401362 
1.70493 1.04644 -0.401362 1.70785 1.04351 -0.401362 1.70804 1.04333 -0.401362 
1.71106 1.0403 -0.401362 1.70747 1.03961 -0.39708 1.71458 1.03679 -0.401362 
1.70683 1.03532 -0.39215 1.71841 1.03295 -0.401362 1.70612 1.03067 -0.38679 
[...]
POINT_DATA 1096
FIELD FieldData 5
pressure 1 1096 float
0.178573 0.666854 0.663912 0.671831 0.672395 0.676001 0.670215 0.705135 0.739942 
0.77962 0.821529 0.855865 0.85492 0.853475 0.849535 0.853309 0.872889 0.884677 
0.889674 0.896563 0.907313 0.906927 0.638199 0.652397 0.651558 0.660227 0.662147 
0.662645 0.675003 0.651444 0.709283 0.749095 0.791507 0.831655 0.844835 0.841025 
0.841442 0.857574 0.882082 0.884191 0.881164 0.890178 0.89983 0.904452 0.614135 
0.62685 0.629574 0.63778 0.641271 0.642142 0.642261 0.665413 0.632002 0.706394 
0.750073 0.792553 0.824051 0.823528 0.822013 0.823336 0.837922 0.873095 0.879703 
0.883394 0.89015 0.901245 0.898813 0.594974 0.587759 0.60759 0.612779 0.621591 
0.62628 0.628903 0.628975 0.629005 0.663943 0.618597 0.710371 0.75587 0.794595 
0.808918 0.807778 0.792773 0.817816 0.848589 0.877158 0.878498 0.87455 0.881544 
0.897834 0.898622 0.586261 0.586897 0.586986 0.586892 0.595178 0.583735 0.604661 
0.611281 0.615427 0.617643 0.61745 0.617458 0.662075 0.608147 0.711057 0.753741 
0.784823 0.787721 0.792413 0.818298 0.864784 0.872109 0.871741 0.881395 0.896033 
0.584351 0.584874 0.583277 0.583308 0.587984 0.582991 0.5964 0.582303 0.602435 
0.60619 0.6081 0.607703 0.607703 0.658493 0.600093 0.706675 0.743385 0.762028 
0.763102 0.756234 0.781516 0.823723 0.861729 0.861418 0.856063 0.862079 0.893283 
0.89318 0.582874 0.583328 0.582141 0.582271 0.582259 0.582255 0.589509 0.58174 
0.595206 0.598587 0.600185 0.599754 0.599742 0.651417 0.59397 0.695989 0.723703 
0.731377 0.738788 0.715337 0.773825 0.825931 0.841982 0.839741 0.815385 0.85828 
0.882818 0.872926 0.581666 0.581039 0.582038 0.580919 0.581318 0.58147 0.581645 
0.581503 0.581651 0.58441 0.581612 0.589581 0.581486 0.592622 0.593922 0.593481 
0.593436 0.640495 0.589338 0.678676 0.695556 0.696895 0.715599 0.673646 0.76468 
0.809001 0.810806 0.814937 0.856286 0.864815 0.581125 0.580935 0.580774 0.580492 
0.580328 0.580918 0.580443 0.581139 0.581229 0.581348 0.581492 0.581475 0.58544 
0.581397 0.588137 0.58917 0.588679 0.588568 0.625969 0.585888 0.656015 0.662049 
0.6612 0.693137 0.637681 0.743801 0.762556 0.762965 0.753531 0.788205 0.827459 
0.820502 0.581492 0.581328 0.580649 0.580524 0.580639 0.580867 0.580799 0.581029 
0.580836 0.581309 0.581404 0.581494 0.581337 0.582522 0.581288 0.5849 0.581112 
0.585678 0.585108 0.584867 0.609396 0.583273 0.630673 0.63046 0.629735 0.668477 
0.612984 0.704871 0.70324 0.709095 0.682656 0.752517 0.5819 0.581954 0.581669 
0.581801 0.581028 0.581333 0.581055 0.581186 0.581002 0.581313 0.581447 0.581413 
0.581403 0.581537 0.581588 0.581485 0.581143 0.581092 0.582615 0.580905 0.583129 
0.58247 0.582076 0.593747 0.581319 0.608244 0.60769 0.60708 0.638362 0.597344 
0.653795 0.651154 0.665612 0.634736 0.582236 0.58198 0.581422 0.581543 0.581628 
0.581687 0.581701 0.581974 0.5816 0.582194 0.58167 0.581839 0.581472 0.581435 
0.58144 0.581618 0.581529 0.581368 0.580967 0.580751 0.581056 0.580676 0.58119 
0.580123 0.580545 0.579922 0.581981 0.579765 0.592839 0.578493 0.59314 0.592265 
0.607945 0.587301 0.617347 0.582841 0.583038 0.58261 0.583049 0.582075 0.582804 
0.582161 0.583061 0.582308 0.582316 0.582223 0.582093 0.582254 0.582182 0.582504 
0.581936 0.581595 0.581559 0.581569 0.581567 0.581084 0.581226 0.580695 0.580218 
0.579814 0.579599 0.579204 0.579101 0.578501 0.57829 0.583524 0.577519 0.584005 
0.583071 0.588254 0.581443 0.584147 0.5856 0.583822 0.58321 0.583082 0.583088 
0.583226 0.583558 0.58301 0.583689 0.582953 0.584119 0.582683 0.582719 0.582719 
0.58272 0.582158 0.582578 0.581814 0.582562 0.581432 0.580866 0.580747 0.580791 
0.580357 0.580529 0.579452 0.57829 0.578269 0.578256 0.578046 0.577763 0.57751 
0.576908 0.578087 0.576629 0.578955 0.575978 0.585892 0.585664 0.585611 0.585657 
0.584898 0.585356 0.584642 0.585621 0.584639 0.586035 0.584254 0.584258 0.584127 
0.583773 0.584095 0.583443 0.584218 0.583103 0.584253 0.582654 0.582515 0.582157 
0.5825 0.581481 0.582381 0.580695 0.580161 0.579973 0.580055 0.578713 0.579262 
0.577819 0.577489 0.577401 0.577388 0.576791 0.576842 0.575999 0.58776 0.588107 
0.587342 0.588114 0.586634 0.587972 0.586508 0.588369 0.586427 0.586022 0.585962 
0.58603 0.585683 0.586346 0.585199 0.586402 0.584712 0.586448 0.584315 0.58425 
0.583766 0.58428 0.583195 0.584244 0.582678 0.582208 0.581839 0.582129 0.580844 
0.581843 0.579701 0.578783 0.578341 0.578555 0.577658 0.578304 0.576916 0.576705 
0.576336 0.57651 0.590149 0.590953 0.589687 0.590941 0.588996 0.590753 0.588886 
0.588717 0.591025 0.588689 0.58874 0.58806 0.588633 0.587651 0.58871 0.587125 
0.588626 0.586569 0.586457 0.585947 0.586436 0.585346 0.586359 0.584676 0.58443 
0.586131 0.584307 0.584468 0.583319 0.584177 0.582347 0.581802 0.58364 0.581622 
0.581777 0.58009 0.581342 0.578897 0.578067 0.577705 0.577971 0.577147 0.578279 
0.59217 0.593735 0.591835 0.594175 0.591323 0.594712 0.591257 0.591113 0.596185 
0.590886 0.591354 0.590208 0.591684 0.589754 0.592445 0.589081 0.588539 0.593604 
0.5883 0.588518 0.58761 0.588574 0.587073 0.589127 0.586231 0.586155 0.585755 
0.586307 0.58502 0.586643 0.583799 0.583647 0.583103 0.583552 0.582252 0.581168 
0.583691 0.581145 0.581159 0.579991 0.581135 0.579263 0.582124 0.599448 0.601324 
0.598425 0.601464 0.597697 0.601371 0.597362 0.597147 0.601238 0.597146 0.598111 
0.600609 0.596637 0.599885 0.596032 0.601828 0.595059 0.59443 0.603482 0.594026 
0.595204 0.593039 0.597109 0.591619 0.5901 0.59918 0.590032 0.590312 0.589495 
0.592301 0.588578 0.586881 0.594585 0.586685 0.587001 0.585928 0.588679 0.584934 
0.584078 0.591039 0.583754 0.584498 0.583234 0.586527 0.582514 0.591001 0.587782 
0.559595 0.593321 0.584106 0.558386 0.593592 0.577181 0.596022 0.571921 0.599645 
0.600294 0.566616 0.600182 0.59583 0.561572 0.600899 0.589895 0.602331 0.604477 
0.582959 0.604245 0.604045 0.575271 0.602809 0.600371 0.601525 0.601017 0.594724 
0.600958 0.601011 0.586845 0.599161 0.599954 0.597463 0.595903 0.59665 0.595467 
0.595947 0.590297 0.594021 0.596018 0.592637 0.592003 0.594488 0.591178 0.592964 
0.590096 0.589125 0.59419 0.589095 0.589285 0.558255 0.562264 0.558134 0.557956 
0.563226 0.558304 0.557693 0.564292 0.559215 0.558192 0.565833 0.559824 0.558905 
0.560067 0.560084 0.55991 0.562552 0.559246 0.561121 0.566024 0.55836 0.568946 
0.570601 0.557944 0.572406 0.568952 0.558022 0.576724 0.565099 0.58106 0.582842 
0.562658 0.583957 0.57873 0.561826 0.586692 0.572194 0.589841 0.589977 0.567245 
0.58936 0.581562 0.590904 0.59215 0.572919 0.59142 0.588201 0.590932 0.5931 
0.578194 0.592992 0.592749 0.568345 0.568961 0.570505 0.576102 0.56816 0.571262 
0.576748 0.567261 0.571794 0.576873 0.566762 0.566529 0.572761 0.565918 0.567277 
0.57373 0.564826 0.568754 0.574999 0.563583 0.562378 0.570119 0.576227 0.562262 
0.562567 0.571594 0.56108 0.564211 0.573209 0.559708 0.558613 0.566068 0.558947 
0.559006 0.568351 0.560131 0.560792 0.570614 0.561479 0.561794 0.563085 0.563291 
0.562961 0.565329 0.564643 0.565175 0.565012 0.565847 0.565125 0.567021 0.566569 
0.565853 0.565076 0.565945 0.565598 0.565708 0.56684 0.56306 0.566755 0.562527 
0.57856 0.580487 0.583721 0.578281 0.581174 0.584388 0.577507 0.577325 0.582104 
0.587963 0.577191 0.577798 0.583227 0.576868 0.578826 0.58463 0.576671 0.580205 
0.586312 0.576239 0.576237 0.581772 0.588072 0.575794 0.577614 0.583538 0.575247 
0.574781 0.579241 0.585314 0.574559 0.575059 0.580992 0.573239 0.576866 0.58265 
0.571664 0.571247 0.578435 0.584164 0.56978 0.572582 0.580179 0.567524 0.566383 
0.573991 0.581749 0.566831 0.567256 0.575211 0.567677 0.568418 0.56851 0.576998 
0.568225 0.569165 0.570549 0.567523 0.566641 0.571611 0.566132 0.56727 0.575242 
0.565059 0.570831 0.587854 0.589705 0.597088 0.60141 0.587178 0.59022 0.597486 
0.589525 0.588757 0.594805 0.601203 0.588683 0.588893 0.595364 0.600912 0.588584 
0.590306 0.596174 0.601067 0.588576 0.591909 0.596894 0.588454 0.588378 0.593291 
0.597485 0.587973 0.5896 0.594352 0.598567 0.587364 0.58684 0.591012 0.595327 
0.586747 0.587049 0.592591 0.597323 0.58576 0.588478 0.593985 0.598497 0.584598 
0.584384 0.590384 0.596457 0.583494 0.585789 0.592076 0.599741 0.582365 0.582083 
0.588569 0.593942 0.580047 0.583449 0.591589 0.577369 0.577219 0.586675 0.587653 
0.575507 0.574327 0.580255 0.591444 0.574581 0.574705 0.582648 0.57302 0.577168 
0.579659 0.579342 0.579466 0.579892 0.581174 0.574481 0.601929 0.601603 0.603025 
0.587161 0.601565 0.601616 0.60297 0.587155 0.603501 0.603996 0.603167 0.547307 
0.602406 0.603361 0.597876 0.508243 0.601748 0.601236 0.60317 0.580365 0.471877 
0.601076 0.601256 0.601862 0.545805 0.448122 0.599906 0.601006 0.589988 0.499878 
0.598704 0.598922 0.598428 0.561573 0.463108 0.5987 0.599001 0.593335 0.511296 
0.444323 0.596261 0.594772 0.557797 0.468501 0.59812 0.59779 0.588324 0.506067 
0.446594 0.592604 0.589486 0.543315 0.463062 0.598743 0.598377 0.572866 0.486851 
0.443859 0.586513 0.594643 0.578704 0.513359 0.452564 0.594478 0.594768 0.538779 
0.464677 0.440257 0.577931 0.580015 0.554926 0.478818 0.444025 0.577624 0.570935 
0.492986 0.448341 0.571805 0.571602 0.507246 0.453914 0.5566 0.552273 0.520097 
0.458975 0.439625 0.543288 0.532382 0.468234 0.443045 0.437595 0.438093 0.436774 
0.443185 0.433099 0.441005 0.439202 0.433495 0.440494 0.437542 0.434611 0.441446 
0.438473 0.43563 0.435651 0.438643 0.438044 0.435192 0.436201 0.440226 0.439125 
0.435731 0.435427 0.436552 0.439731 0.437483 0.435414 0.435988 0.437001 0.439367 
0.439217 0.43589 0.435881 0.436804 0.437535 0.440222 0.439687 0.436604 0.436071 
0.436867 0.437622 0.438295 0.440116 0.439395 0.437524 0.436115 0.436792 0.437665 
0.438249 0.438927 0.439469 0.438976 0.436292 0.436597 0.437635 0.438393 0.438919 
0.439072 0.439181 0.436161 0.436425 0.437344 0.438169 0.438774 0.440969 0.437133 
0.436776 0.437603 0.43835 0.438821 0.439103 0.439116 0.438994 0.439356 0.438882 
0.438875 0.439068 0.439178 0.438854 0.439128 0.439295 0.439492 
velocity_u 1 1096 float
1 0.195212 0.292086 0.328638 0.3428 0.344087 0.371278 0.33831 0.326755 
0.310057 0.288448 0.266159 0.264983 0.289903 0.254558 0.241888 0.225293 0.218947 
0.227402 0.239149 0.239783 0.252554 0.243544 0.304583 0.418092 0.458663 0.476504 
0.479338 0.475649 0.54659 0.459657 0.438067 0.410937 0.379315 0.367678 0.359148 
0.344216 0.324518 0.307614 0.312187 0.389402 0.32844 0.330841 0.328854 0.361084 
0.463442 0.556635 0.591272 0.601996 0.603928 0.603776 0.592544 0.640215 0.571265 
0.54565 0.516477 0.491164 0.490005 0.499227 0.478004 0.461702 0.440604 0.436687 
0.444282 0.44054 0.432331 0.483084 0.413241 0.422985 0.531082 0.615698 0.645567 
0.652626 0.652153 0.652099 0.652183 0.635045 0.666635 0.610363 0.582494 0.555685 
0.545182 0.540843 0.561496 0.528207 0.509159 0.49315 0.495373 0.508165 0.495418 
0.487304 0.486842 0.429803 0.56408 0.564983 0.565095 0.640958 0.651574 0.666617 
0.670878 0.669314 0.667916 0.668313 0.668347 0.645373 0.675053 0.617593 0.590434 
0.568763 0.566752 0.559812 0.543789 0.51862 0.514392 0.518782 0.518595 0.512224 
0.433871 0.570036 0.652592 0.668005 0.678742 0.681964 0.680969 0.689176 0.678186 
0.675824 0.674727 0.675365 0.675363 0.647529 0.679265 0.618359 0.59463 0.582128 
0.580924 0.585308 0.569502 0.54649 0.525323 0.527252 0.529529 0.534467 0.522245 
0.522385 0.435895 0.572535 0.653604 0.68264 0.689207 0.689227 0.685391 0.689536 
0.681862 0.680021 0.679351 0.679439 0.679429 0.649666 0.682539 0.622561 0.605109 
0.600236 0.595509 0.609615 0.576444 0.547842 0.539637 0.546113 0.557871 0.542056 
0.52701 0.530702 0.437433 0.438168 0.574468 0.576089 0.654047 0.68304 0.689467 
0.689503 0.68921 0.687541 0.68904 0.68499 0.689518 0.683371 0.682358 0.682833 
0.682902 0.655663 0.685837 0.632284 0.621531 0.621205 0.610797 0.635574 0.58418 
0.561604 0.560816 0.56465 0.540314 0.536975 0.438043 0.576067 0.592521 0.65409 
0.654285 0.682943 0.68283 0.689267 0.689173 0.688986 0.689516 0.689506 0.687157 
0.689464 0.684897 0.684795 0.686275 0.686413 0.664276 0.688339 0.645287 0.642315 
0.64391 0.626949 0.659793 0.599856 0.591725 0.592449 0.597505 0.578751 0.564266 
0.569254 0.438317 0.576425 0.654235 0.682641 0.686317 0.688941 0.688875 0.689093 
0.688922 0.689087 0.689741 0.689458 0.688839 0.68782 0.688497 0.686804 0.688744 
0.687905 0.688872 0.688788 0.673646 0.689128 0.660706 0.663765 0.665041 0.643762 
0.676184 0.625337 0.62695 0.623757 0.638782 0.60465 0.438555 0.438739 0.576763 
0.577336 0.654164 0.654714 0.682072 0.688163 0.688647 0.688697 0.688686 0.688709 
0.689661 0.689556 0.689381 0.688345 0.688691 0.689013 0.689288 0.690232 0.689713 
0.689387 0.68933 0.682261 0.689436 0.676118 0.67903 0.679901 0.662781 0.685877 
0.654357 0.656608 0.649951 0.666002 0.439464 0.577913 0.654843 0.670676 0.681923 
0.681945 0.687769 0.687578 0.688263 0.687751 0.688565 0.689372 0.689582 0.689602 
0.689574 0.688365 0.688336 0.688526 0.690138 0.690716 0.690658 0.690868 0.689571 
0.689701 0.689438 0.691468 0.69053 0.691693 0.687158 0.694276 0.688026 0.688143 
0.679136 0.690357 0.674767 0.440623 0.440859 0.579316 0.579949 0.655679 0.656337 
0.682035 0.682146 0.687349 0.687647 0.687857 0.688145 0.688026 0.68879 0.688639 
0.688932 0.688223 0.688525 0.688573 0.688559 0.690292 0.690358 0.690792 0.689503 
0.689421 0.689007 0.689114 0.69114 0.69411 0.694582 0.692767 0.695664 0.691964 
0.692123 0.689389 0.69283 0.441801 0.441987 0.580725 0.656542 0.682143 0.682413 
0.68696 0.68674 0.687101 0.686565 0.687503 0.686556 0.688546 0.688309 0.688309 
0.688308 0.687484 0.687059 0.688141 0.687364 0.690351 0.691151 0.691318 0.691296 
0.689531 0.689602 0.688781 0.690898 0.690966 0.690975 0.693478 0.693472 0.695328 
0.695681 0.695046 0.695781 0.693902 0.695231 0.442196 0.563658 0.581021 0.581049 
0.65672 0.65676 0.681659 0.681234 0.685996 0.685153 0.686125 0.68644 0.686824 
0.687765 0.687563 0.687504 0.687039 0.686459 0.685522 0.68723 0.688074 0.689612 
0.689359 0.690943 0.690085 0.689615 0.688921 0.688682 0.688668 0.690766 0.690734 
0.693349 0.694414 0.694971 0.694967 0.695552 0.695659 0.6952 0.443411 0.443489 
0.582712 0.582918 0.657167 0.657108 0.680858 0.679886 0.684906 0.684934 0.684947 
0.684901 0.685539 0.685135 0.686857 0.686126 0.686709 0.68538 0.68547 0.685587 
0.686446 0.686032 0.688827 0.68809 0.689787 0.689134 0.688778 0.688508 0.688438 
0.687673 0.690613 0.692433 0.693361 0.693244 0.694818 0.694467 0.695629 0.695461 
0.695127 0.695005 0.443929 0.444165 0.583263 0.583655 0.656879 0.656568 0.679564 
0.682808 0.678015 0.683177 0.683136 0.683452 0.68303 0.684363 0.683727 0.68569 
0.684774 0.685288 0.685041 0.684151 0.683805 0.685164 0.684424 0.687774 0.688413 
0.686809 0.68862 0.688495 0.687309 0.686877 0.687326 0.689053 0.686023 0.689511 
0.689417 0.692351 0.691637 0.694103 0.695028 0.695483 0.695264 0.694714 0.694465 
0.444993 0.444697 0.584355 0.583812 0.656698 0.655632 0.677864 0.679288 0.674802 
0.681277 0.680945 0.681671 0.68068 0.683129 0.681446 0.684549 0.684338 0.681854 
0.68421 0.684043 0.682761 0.682171 0.683914 0.682596 0.686748 0.686911 0.687727 
0.687316 0.686207 0.68509 0.685916 0.686407 0.688721 0.688241 0.691049 0.69225 
0.690175 0.692272 0.692261 0.693624 0.692672 0.694053 0.69216 0.443301 0.443047 
0.582648 0.582055 0.654499 0.652894 0.674134 0.675674 0.672209 0.677065 0.676447 
0.674269 0.677544 0.675477 0.679194 0.675624 0.680963 0.680933 0.675919 0.680762 
0.680061 0.679653 0.677111 0.68113 0.684158 0.676796 0.684543 0.684379 0.685344 
0.683718 0.68396 0.683666 0.680111 0.683569 0.683343 0.686357 0.684791 0.689476 
0.690052 0.685846 0.690309 0.689808 0.691335 0.689456 0.691907 0.451443 0.453734 
0.476005 0.589724 0.597592 0.622702 0.659417 0.672257 0.675466 0.690614 0.674854 
0.674523 0.695694 0.675135 0.677781 0.698951 0.676176 0.682775 0.676585 0.674653 
0.68823 0.674657 0.674775 0.692083 0.673555 0.674996 0.675394 0.677938 0.679439 
0.678054 0.678023 0.686219 0.679508 0.679031 0.678452 0.678319 0.678395 0.678341 
0.677988 0.68077 0.681545 0.68016 0.684954 0.68537 0.683952 0.685917 0.684864 
0.687312 0.68831 0.684627 0.68835 0.688242 0.478416 0.480367 0.623236 0.636899 
0.625921 0.68656 0.687409 0.685812 0.698562 0.699236 0.694496 0.699803 0.700343 
0.699864 0.700222 0.700091 0.699493 0.701577 0.700539 0.69858 0.703378 0.695957 
0.693901 0.702871 0.692121 0.694246 0.701291 0.690278 0.697348 0.689678 0.688733 
0.700839 0.688214 0.69125 0.701676 0.684034 0.692596 0.68103 0.681025 0.693787 
0.683434 0.687636 0.685883 0.685274 0.695668 0.685656 0.68756 0.686243 0.685542 
0.693124 0.685648 0.685769 0.698571 0.48116 0.48153 0.484444 0.626409 0.627121 
0.630154 0.684818 0.683401 0.682415 0.693916 0.694722 0.690129 0.696002 0.695117 
0.690874 0.697151 0.694603 0.690566 0.69906 0.700836 0.694929 0.691148 0.701039 
0.700855 0.69533 0.700944 0.699071 0.6936 0.700282 0.701534 0.696441 0.701498 
0.701514 0.695953 0.702613 0.702439 0.696581 0.701946 0.700983 0.701544 0.69808 
0.698382 0.697468 0.695367 0.695972 0.695221 0.696245 0.696592 0.6951 0.699166 
0.700353 0.699867 0.700359 0.700539 0.700143 0.699932 0.701922 0.699464 0.70202 
0.486697 0.488199 0.493012 0.631516 0.633693 0.638301 0.682264 0.684653 0.681733 
0.680545 0.687277 0.686959 0.684065 0.688798 0.687213 0.682681 0.689492 0.687038 
0.682983 0.691141 0.691152 0.688016 0.684716 0.69286 0.691666 0.687914 0.692414 
0.691413 0.689866 0.68595 0.691313 0.691008 0.687524 0.693049 0.690992 0.687904 
0.695941 0.696331 0.69195 0.688787 0.697506 0.695775 0.691218 0.696112 0.695853 
0.692021 0.687121 0.694497 0.694341 0.689304 0.694727 0.696307 0.694371 0.688947 
0.69784 0.697344 0.697236 0.699135 0.699008 0.697002 0.698996 0.698313 0.693758 
0.700551 0.697318 0.495739 0.497294 0.500581 0.505467 0.640158 0.642734 0.64607 
0.679959 0.68102 0.677843 0.674765 0.681212 0.681095 0.677327 0.673923 0.679523 
0.678412 0.674476 0.670908 0.681515 0.679546 0.676576 0.684519 0.684605 0.681557 
0.679275 0.685056 0.684052 0.681105 0.677956 0.684579 0.684146 0.682318 0.679929 
0.6841 0.683917 0.680614 0.678002 0.686267 0.684638 0.681352 0.678357 0.688537 
0.688709 0.685074 0.681874 0.689324 0.688032 0.684406 0.679803 0.686756 0.686539 
0.683089 0.679918 0.686196 0.684044 0.679316 0.68872 0.689118 0.682739 0.683122 
0.694334 0.697066 0.691279 0.683526 0.697026 0.69703 0.692627 0.697704 0.693159 
0.692844 0.692675 0.689758 0.693211 0.692568 0.696151 0.506494 0.639806 0.510833 
0.525101 0.651288 0.651382 0.657308 0.669329 0.674037 0.673977 0.67523 0.70482 
0.672903 0.672256 0.674545 0.72148 0.670428 0.673106 0.669269 0.679959 0.735712 
0.673714 0.673598 0.672913 0.701762 0.750273 0.677096 0.676133 0.68214 0.727867 
0.678375 0.67809 0.67909 0.695903 0.744985 0.678303 0.678121 0.67805 0.721003 
0.753625 0.677822 0.678164 0.697878 0.741319 0.678538 0.678681 0.682805 0.724814 
0.752736 0.682232 0.683404 0.708523 0.747126 0.680255 0.680511 0.69213 0.735749 
0.756453 0.68495 0.676138 0.689443 0.720893 0.750408 0.675815 0.675484 0.704966 
0.742021 0.754195 0.687387 0.687495 0.697258 0.734571 0.75129 0.689411 0.692335 
0.730048 0.75107 0.69826 0.698309 0.72772 0.752331 0.701343 0.703995 0.720179 
0.750323 0.760232 0.710217 0.714738 0.745117 0.757403 0.75733 0.757251 0.757878 
0.754446 0.759289 0.755342 0.755476 0.759252 0.754671 0.756079 0.757506 0.754925 
0.758447 0.757454 0.756969 0.758469 0.758748 0.759689 0.75853 0.758226 0.757577 
0.760414 0.760562 0.759885 0.756833 0.757963 0.759241 0.759185 0.759063 0.754677 
0.754316 0.756619 0.756866 0.756721 0.756719 0.753025 0.754184 0.754715 0.754943 
0.754674 0.754469 0.754327 0.754555 0.758264 0.755652 0.75572 0.754709 0.753978 
0.753462 0.752977 0.758393 0.758598 0.758953 0.757824 0.756582 0.755557 0.754805 
0.760497 0.760367 0.761811 0.761199 0.760166 0.759094 0.758203 0.75867 0.760928 
0.761518 0.761377 0.761044 0.760674 0.753389 0.754511 0.755788 0.754103 0.757992 
0.758702 0.757548 0.757026 0.760631 0.760305 0.759954 0.759512 
velocity_v 1 1096 float
0 0.0399031 0.0450609 0.0464741 0.0454841 0.0450938 0.0493108 0.0417589 0.0356996 