# vtk DataFile Version 5.1
vtk output
ASCII
DATASET STRUCTURED_GRID
DIMENSIONS 13 30 24
POINTS 9360 float
5.62476 0.267786 -0.148191 5.62476 0.285262 -0.148191 5.62477 0.304998 -0.148191 
5.62477 0.327132 -0.148191 5.62477 0.351766 -0.148191 5.62478 0.378945 -0.148191 
5.62478 0.408647 -0.148191 5.62478 0.440766 -0.148191 5.62479 0.475104 -0.148191 
5.62479 0.51137 -0.148191 5.6248 0.549178 -0.148191 5.6248 0.588063 -0.148191 
5.62481 0.627503 -0.148191 5.66524 0.262075 -0.148191 5.66524 0.279644 -0.148191 
5.66523 0.299494 -0.148191 5.66523 0.321766 -0.148191 5.66523 0.346562 -0.148191 
5.66522 0.373931 -0.148191 5.66522 0.40385 -0.148191 5.66521 0.436215 -0.148191 
5.66521 0.470826 -0.148191 5.66521 0.507387 -0.148191 5.6652 0.545509 -0.148191 
5.6652 0.584722 -0.148191 5.66519 0.624496 -0.148191 5.70571 0.256363 -0.148191 
5.7057 0.274026 -0.148191 5.7057 0.29399 -0.148191 5.70569 0.316399 -0.148191 
5.70568 0.341358 -0.148191 5.70567 0.368917 -0.148191 5.70566 0.399054 -0.148191 
5.70565 0.431664 -0.148191 5.70563 0.466547 -0.148191 5.70562 0.503403 -0.148191 
5.7056 0.54184 -0.148191 5.70559 0.581381 -0.148191 5.70558 0.62149 -0.148191 
5.74618 0.250652 -0.148191 5.74617 0.268409 -0.148191 5.74616 0.288487 -0.148191 
5.74614 0.311033 -0.148191 5.74613 0.336155 -0.148191 5.74611 0.363904 -0.148191 
5.74609 0.394259 -0.148191 5.74607 0.427114 -0.148191 5.74605 0.462269 -0.148191 
5.74603 0.49942 -0.148191 5.74601 0.538171 -0.148191 5.74598 0.57804 -0.148191 
5.74596 0.618484 -0.148191 5.78665 0.244942 -0.148191 5.78663 0.262792 -0.148191 
5.78661 0.282984 -0.148191 5.7866 0.305668 -0.148191 5.78657 0.330953 -0.148191 
5.78655 0.358891 -0.148191 5.78652 0.389464 -0.148191 5.7865 0.422565 -0.148191 
5.78647 0.457991 -0.148191 5.78643 0.495438 -0.148191 5.7864 0.534503 -0.148191 
5.78637 0.574699 -0.148191 5.78633 0.615478 -0.148191 5.82711 0.239233 -0.148191 
5.82709 0.257176 -0.148191 5.82706 0.277483 -0.148191 5.82704 0.300304 -0.148191 
5.82701 0.325751 -0.148191 5.82698 0.353879 -0.148191 5.82695 0.38467 -0.148191 
5.82691 0.418016 -0.148191 5.82687 0.453714 -0.148191 5.82683 0.491456 -0.148191 
5.82679 0.530835 -0.148191 5.82675 0.571359 -0.148191 5.8267 0.612473 -0.148191 
5.86755 0.233525 -0.148191 5.86753 0.251562 -0.148191 5.8675 0.271983 -0.148191 
5.86747 0.294941 -0.148191 5.86744 0.320551 -0.148191 5.8674 0.348869 -0.148191 
5.86736 0.379877 -0.148191 5.86732 0.413469 -0.148191 5.86727 0.449439 -0.148191 
5.86722 0.487476 -0.148191 5.86717 0.527169 -0.148191 5.86712 0.568021 -0.148191 
5.86707 0.609469 -0.148191 5.90799 0.22782 -0.148191 5.90796 0.24595 -0.148191 
5.90793 0.266485 -0.148191 5.9079 0.28958 -0.148191 5.90786 0.315353 -0.148191 
5.90781 0.34386 -0.148191 5.90777 0.375086 -0.148191 5.90772 0.408923 -0.148191 
5.90766 0.445164 -0.148191 5.90761 0.483496 -0.148191 5.90755 0.523503 -0.148191 
5.90749 0.564683 -0.148191 5.90742 0.606465 -0.148191 5.94841 0.222116 -0.148191 
5.94838 0.24034 -0.148191 5.94835 0.260989 -0.148191 5.94831 0.284221 -0.148191 
5.94826 0.310156 -0.148191 5.94821 0.338853 -0.148191 5.94816 0.370297 -0.148191 
5.9481 0.404379 -0.148191 5.94804 0.440892 -0.148191 5.94798 0.479518 -0.148191 
5.94791 0.51984 -0.148191 5.94784 0.561346 -0.148191 5.94777 0.603463 -0.148191 
5.98881 0.216415 -0.148191 5.98878 0.234732 -0.148191 5.98874 0.255495 -0.148191 
5.9887 0.278865 -0.148191 5.98865 0.304962 -0.148191 5.9886 0.333849 -0.148191 
5.98854 0.365509 -0.148191 5.98847 0.399837 -0.148191 5.98841 0.436621 -0.148191 
5.98834 0.475542 -0.148191 5.98826 0.516177 -0.148191 5.98818 0.558011 -0.148191 
5.9881 0.600463 -0.148191 6.0292 0.210717 -0.148191 6.02916 0.229128 -0.148191 
6.02912 0.250004 -0.148191 6.02907 0.273511 -0.148191 6.02902 0.299771 -0.148191 
6.02896 0.328847 -0.148191 6.0289 0.360724 -0.148191 6.02883 0.395297 -0.148191 
6.02875 0.432352 -0.148191 6.02868 0.471568 -0.148191 6.02859 0.512517 -0.148191 
6.02851 0.554678 -0.148191 6.02843 0.597463 -0.148191 6.06957 0.205022 -0.148191 
6.06953 0.223526 -0.148191 6.06948 0.244516 -0.148191 6.06943 0.26816 -0.148191 
6.06937 0.294582 -0.148191 6.06931 0.323847 -0.148191 6.06924 0.355942 -0.148191 
6.06917 0.39076 -0.148191 6.06909 0.428086 -0.148191 6.069 0.467596 -0.148191 
6.06891 0.508858 -0.148191 6.06882 0.551346 -0.148191 6.06873 0.594466 -0.148191 
6.10991 0.199331 -0.148191 6.10987 0.217928 -0.148191 6.10982 0.239032 -0.148191 
6.10976 0.262812 -0.148191 6.1097 0.289397 -0.148191 6.10964 0.318851 -0.148191 
6.10956 0.351163 -0.148191 6.10948 0.386225 -0.148191 6.1094 0.423822 -0.148191 
6.10931 0.463627 -0.148191 6.10922 0.505202 -0.148191 6.10912 0.548017 -0.148191 
6.10902 0.59147 -0.148191 6.15022 0.193644 -0.148191 6.15018 0.212334 -0.148191 
6.15013 0.233551 -0.148191 6.15007 0.257469 -0.148191 6.15001 0.284215 -0.148191 
6.14994 0.313858 -0.148191 6.14986 0.346387 -0.148191 6.14978 0.381694 -0.148191 
6.14969 0.419561 -0.148191 6.1496 0.45966 -0.148191 6.1495 0.501548 -0.148191 
6.1494 0.54469 -0.148191 6.14929 0.588476 -0.148191 6.19051 0.187961 -0.148191 
6.19047 0.206744 -0.148191 6.19041 0.228075 -0.148191 6.19036 0.252129 -0.148191 
6.19029 0.279037 -0.148191 6.19022 0.308869 -0.148191 6.19014 0.341615 -0.148191 
6.19005 0.377165 -0.148191 6.18996 0.415304 -0.148191 6.18986 0.455696 -0.148191 
6.18976 0.497897 -0.148191 6.18965 0.541365 -0.148191 6.18955 0.585485 -0.148191 
6.23077 0.182282 -0.148191 6.23072 0.201158 -0.148191 6.23067 0.222603 -0.148191 
6.23061 0.246793 -0.148191 6.23054 0.273863 -0.148191 6.23047 0.303884 -0.148191 
6.23039 0.336846 -0.148191 6.2303 0.372641 -0.148191 6.2302 0.411049 -0.148191 
6.2301 0.451736 -0.148191 6.23 0.494249 -0.148191 6.22989 0.538043 -0.148191 
6.22978 0.582496 -0.148191 6.27099 0.176608 -0.148191 6.27095 0.195577 -0.148191 
6.27089 0.217135 -0.148191 6.27083 0.241462 -0.148191 6.27076 0.268694 -0.148191 
6.27069 0.298903 -0.148191 6.27061 0.332081 -0.148191 6.27052 0.36812 -0.148191 
6.27042 0.406799 -0.148191 6.27032 0.447778 -0.148191 6.27021 0.490604 -0.148191 
6.2701 0.534724 -0.148191 6.26999 0.57951 -0.148191 6.31119 0.17094 -0.148191 
6.31114 0.190001 -0.148191 6.31109 0.211672 -0.148191 6.31102 0.236136 -0.148191 
6.31096 0.263529 -0.148191 6.31088 0.293927 -0.148191 6.3108 0.327321 -0.148191 
6.3107 0.363604 -0.148191 6.31061 0.402552 -0.148191 6.3105 0.443824 -0.148191 
6.3104 0.486963 -0.148191 6.31029 0.531408 -0.148191 6.31017 0.576526 -0.148191 
6.35134 0.165277 -0.148191 6.35129 0.184431 -0.148191 6.35124 0.206215 -0.148191 
6.35118 0.230815 -0.148191 6.35111 0.258369 -0.148191 6.35104 0.288955 -0.148191 
6.35095 0.322565 -0.148191 6.35086 0.359091 -0.148191 6.35077 0.398309 -0.148191 
6.35066 0.439875 -0.148191 6.35056 0.483324 -0.148191 6.35045 0.528095 -0.148191 
6.35034 0.573545 -0.148191 6.39146 0.15962 -0.148191 6.39141 0.178866 -0.148191 
6.39136 0.200764 -0.148191 6.3913 0.225499 -0.148191 6.39123 0.253215 -0.148191 
6.39116 0.283989 -0.148191 6.39108 0.317815 -0.148191 6.39099 0.354584 -0.148191 
6.39089 0.394071 -0.148191 6.39079 0.435929 -0.148191 6.39069 0.47969 -0.148191 
6.39058 0.524785 -0.148191 6.39047 0.570568 -0.148191 6.43153 0.153969 -0.148191 
6.43149 0.173308 -0.148191 6.43144 0.195318 -0.148191 6.43138 0.220189 -0.148191 
6.43131 0.248066 -0.148191 6.43124 0.279027 -0.148191 6.43116 0.313069 -0.148191 
6.43108 0.350081 -0.148191 6.43099 0.389837 -0.148191 6.43089 0.431987 -0.148191 
6.43079 0.47606 -0.148191 6.43068 0.521479 -0.148191 6.43058 0.567593 -0.148191 
6.47156 0.148324 -0.148191 6.47152 0.167756 -0.148191 6.47147 0.189879 -0.148191 
6.47142 0.214886 -0.148191 6.47136 0.242923 -0.148191 6.47129 0.274072 -0.148191 
6.47121 0.308329 -0.148191 6.47113 0.345584 -0.148191 6.47104 0.385608 -0.148191 
6.47095 0.42805 -0.148191 6.47085 0.472433 -0.148191 6.47075 0.518177 -0.148191 
6.47065 0.564622 -0.148191 6.51155 0.142687 -0.148191 6.51151 0.162211 -0.148191 
6.51146 0.184446 -0.148191 6.51141 0.209588 -0.148191 6.51135 0.237786 -0.148191 
6.51129 0.269123 -0.148191 6.51122 0.303594 -0.148191 6.51114 0.341091 -0.148191 
6.51106 0.381385 -0.148191 6.51097 0.424118 -0.148191 6.51088 0.468812 -0.148191 
6.51079 0.514879 -0.148191 6.51069 0.561655 -0.148191 6.55149 0.137057 -0.148191 
6.55145 0.156673 -0.148191 6.55141 0.179021 -0.148191 6.55136 0.204298 -0.148191 
6.55131 0.232656 -0.148191 6.55125 0.26418 -0.148191 6.55119 0.298866 -0.148191 
6.55112 0.336605 -0.148191 6.55104 0.377166 -0.148191 6.55096 0.420191 -0.148191 
6.55088 0.465194 -0.148191 6.55079 0.511585 -0.148191 6.55071 0.558692 -0.148191 
6.59138 0.131434 -0.148191 6.59134 0.151142 -0.148191 6.59131 0.173602 -0.148191 
6.59127 0.199015 -0.148191 6.59122 0.227533 -0.148191 6.59117 0.259243 -0.148191 
6.59111 0.294144 -0.148191 6.59105 0.332125 -0.148191 6.59098 0.372953 -0.148191 
6.59091 0.416268 -0.148191 6.59084 0.461582 -0.148191 6.59076 0.508296 -0.148191 
6.59068 0.555732 -0.148191 6.63121 0.125819 -0.148191 6.63119 0.145618 -0.148191 
6.63115 0.168191 -0.148191 6.63112 0.193738 -0.148191 6.63108 0.222417 -0.148191 
6.63104 0.254313 -0.148191 6.63099 0.289428 -0.148191 6.63093 0.32765 -0.148191 
6.63088 0.368746 -0.148191 6.63082 0.412352 -0.148191 6.63075 0.457974 -0.148191 
6.63069 0.505011 -0.148191 6.63062 0.552777 -0.148191 6.671 0.120212 -0.148191 
6.67098 0.140103 -0.148191 6.67095 0.162788 -0.148191 6.67092 0.18847 -0.148191 
6.67089 0.217308 -0.148191 6.67086 0.249391 -0.148191 6.67082 0.284719 -0.148191 
6.67077 0.323182 -0.148191 6.67073 0.364545 -0.148191 6.67068 0.408441 -0.148191 
6.67063 0.454372 -0.148191 6.67058 0.501731 -0.148191 6.67053 0.549826 -0.148191 
6.71072 0.114614 -0.148191 6.71071 0.134596 -0.148191 6.71069 0.157393 -0.148191 
6.71067 0.183209 -0.148191 6.71065 0.212207 -0.148191 6.71062 0.244476 -0.148191 
6.7106 0.280017 -0.148191 6.71057 0.318721 -0.148191 6.71054 0.36035 -0.148191 
6.7105 0.404535 -0.148191 6.71047 0.450775 -0.148191 6.71043 0.498455 -0.148191 
[...]
POINT_DATA 9360
FIELD FieldData 5
pressure 1 9360 float
0.179688 0.176899 0.173949 0.17136 0.170311 0.170612 0.170392 0.168715 0.163626 
0.15515 0.143705 0.132634 0.124673 0.180187 0.177497 0.174384 0.172032 0.170265 
0.170182 0.171004 0.170704 0.168113 0.161882 0.151147 0.139919 0.130901 0.181827 
0.179038 0.175782 0.173016 0.170994 0.170123 0.170604 0.171292 0.16992 0.165077 
0.15744 0.147583 0.138276 0.183947 0.181568 0.178297 0.174938 0.171976 0.17032 
0.169736 0.169911 0.169436 0.166847 0.161209 0.154205 0.145392 0.186401 0.184381 
0.181361 0.178349 0.174445 0.171167 0.169151 0.168437 0.167938 0.16658 0.164121 
0.158825 0.150239 0.189013 0.187056 0.184807 0.181978 0.17836 0.173822 0.169744 
0.167375 0.166699 0.166284 0.165588 0.161733 0.153825 0.191332 0.190038 0.187819 
0.185775 0.182154 0.177944 0.172455 0.167971 0.166183 0.166249 0.166054 0.163519 
0.15664 0.193942 0.192731 0.191131 0.18877 0.186131 0.181902 0.17676 0.171039 
0.167382 0.166418 0.166289 0.164138 0.158884 0.196111 0.195509 0.193731 0.192177 
0.189227 0.186151 0.181262 0.175931 0.170748 0.167899 0.166184 0.16445 0.160423 
0.198279 0.197717 0.196548 0.194663 0.192743 0.189669 0.186245 0.181314 0.175921 
0.170681 0.166875 0.16458 0.161992 0.200037 0.199825 0.19854 0.197505 0.195463 
0.193583 0.190699 0.187023 0.181374 0.174995 0.168992 0.1657 0.163652 0.201682 
0.201346 0.200713 0.199503 0.198467 0.196816 0.195063 0.191862 0.18683 0.179962 
0.173298 0.168377 0.166611 0.2032 0.202861 0.202179 0.201844 0.200713 0.199973 
0.198408 0.195775 0.191198 0.185152 0.17848 0.173179 0.170192 0.204577 0.204148 
0.203959 0.203432 0.203127 0.202145 0.201084 0.198397 0.19446 0.189339 0.18393 
0.178738 0.175396 0.206008 0.205487 0.205183 0.205258 0.204637 0.204119 0.202664 
0.200305 0.196736 0.192985 0.18878 0.184763 0.179903 0.207043 0.206535 0.206637 
0.206378 0.206207 0.205229 0.203933 0.201539 0.198907 0.196003 0.193227 0.189105 
0.183502 0.208032 0.207484 0.207504 0.207521 0.207083 0.206264 0.204699 0.202982 
0.200727 0.198675 0.19545 0.191387 0.185826 0.20875 0.208117 0.208333 0.208175 
0.20784 0.206914 0.20565 0.204053 0.20272 0.200239 0.197023 0.192563 0.187362 
0.209429 0.208781 0.20879 0.208733 0.208301 0.207557 0.206382 0.205479 0.203885 
0.201804 0.197931 0.193683 0.18917 0.210026 0.209251 0.209402 0.20914 0.208811 
0.208036 0.207224 0.206332 0.205209 0.202644 0.199257 0.195547 0.191949 0.210634 
0.209932 0.209818 0.209643 0.209184 0.208598 0.207767 0.207215 0.205885 0.20405 
0.201183 0.198594 0.195673 0.211213 0.210389 0.210438 0.210065 0.209711 0.209004 
0.208322 0.207729 0.206972 0.205575 0.204089 0.201997 0.20001 0.211764 0.211068 
0.210853 0.210647 0.210197 0.209587 0.208832 0.208446 0.208082 0.207824 0.206878 
0.205888 0.204324 0.212384 0.211596 0.211538 0.211164 0.210836 0.210188 0.209634 
0.209382 0.209723 0.2099 0.210026 0.209336 0.208026 0.212952 0.21234 0.212063 
0.211897 0.211529 0.21107 0.210586 0.210673 0.211366 0.212266 0.212472 0.212285 
0.211449 0.213751 0.213077 0.212922 0.212599 0.212375 0.212006 0.211755 0.211941 
0.212996 0.213956 0.214656 0.214755 0.214682 0.214666 0.214191 0.21395 0.213771 
0.213484 0.213203 0.212843 0.213182 0.214139 0.21549 0.216263 0.216955 0.217347 
0.215886 0.215609 0.215529 0.215242 0.21493 0.214468 0.214031 0.21386 0.214586 
0.215802 0.217218 0.218254 0.218871 0.21763 0.217791 0.218248 0.218264 0.217969 
0.217373 0.215892 0.215106 0.214922 0.215929 0.217253 0.219065 0.220678 0.218608 
0.218836 0.219691 0.220934 0.221694 0.222169 0.223089 0.222238 0.218366 0.216813 
0.2177 0.219486 0.222115 0.182501 0.177152 0.174415 0.172887 0.171964 0.172148 
0.171991 0.170338 0.165354 0.157168 0.14643 0.135236 0.126214 0.183367 0.179102 
0.176345 0.17507 0.17382 0.173742 0.174303 0.173893 0.172017 0.16668 0.157844 
0.148574 0.139977 0.184457 0.178994 0.1752 0.173007 0.171168 0.170925 0.171442 
0.172043 0.170744 0.16686 0.160001 0.152356 0.142809 0.185805 0.180306 0.176298 
0.172912 0.170143 0.16893 0.169092 0.1695 0.169352 0.166806 0.162457 0.155832 
0.146467 0.188151 0.182367 0.178943 0.175451 0.171462 0.168741 0.167452 0.167481 
0.167578 0.166742 0.164311 0.159304 0.150329 0.189787 0.184873 0.182158 0.178899 
0.175001 0.170828 0.167593 0.166089 0.166094 0.166099 0.165408 0.161817 0.153749 
0.192354 0.188074 0.185364 0.182816 0.178937 0.174944 0.169954 0.166373 0.16511 
0.165386 0.16529 0.162997 0.156141 0.194436 0.19169 0.18906 0.186524 0.1834 
0.179292 0.174341 0.168964 0.16565 0.164869 0.164811 0.162695 0.157834 0.197031 
0.195264 0.192427 0.190458 0.1872 0.184198 0.179202 0.173789 0.168525 0.165694 
0.164323 0.162626 0.159333 0.198976 0.198775 0.195792 0.193777 0.191179 0.188309 
0.184608 0.179332 0.173831 0.168384 0.165042 0.16307 0.161314 0.201326 0.201938 
0.198686 0.197289 0.194604 0.192496 0.189419 0.185433 0.179528 0.173362 0.167475 
0.165074 0.163767 0.203338 0.204663 0.201611 0.200106 0.198125 0.196039 0.19398 
0.190561 0.185538 0.178602 0.172526 0.168885 0.167479 0.205595 0.207245 0.204145 
0.203178 0.201158 0.199487 0.197585 0.194903 0.190203 0.184503 0.178505 0.174512 
0.17184 0.207679 0.209154 0.206617 0.205512 0.204153 0.20211 0.200568 0.197727 
0.194194 0.189346 0.184911 0.180717 0.177123 0.209759 0.210919 0.208621 0.207875 
0.206365 0.204437 0.20231 0.199744 0.196526 0.193614 0.190338 0.18713 0.181863 
0.211756 0.211865 0.210321 0.209618 0.208376 0.206083 0.203712 0.200976 0.198579 
0.196446 0.194919 0.190834 0.185933 0.213252 0.212654 0.211743 0.211182 0.209874 
0.207507 0.204784 0.202314 0.200142 0.198856 0.196303 0.193121 0.187571 0.214558 
0.212981 0.212628 0.212406 0.211077 0.208821 0.205966 0.20368 0.201851 0.199779 
0.197505 0.193431 0.18858 0.215306 0.213227 0.213411 0.213081 0.212259 0.210059 
0.207275 0.205262 0.203051 0.201 0.197629 0.193973 0.189489 0.215832 0.213221 
0.213819 0.21384 0.212987 0.211331 0.208795 0.206561 0.204479 0.201552 0.198438 
0.194739 0.191383 0.216034 0.213392 0.214164 0.214209 0.213751 0.212466 0.210022 
0.207984 0.2054 0.202741 0.1995 0.196769 0.194328 0.216059 0.213419 0.214445 
0.214687 0.214364 0.213335 0.211277 0.208906 0.20669 0.204071 0.20176 0.199749 
0.198249 0.216023 0.21362 0.21463 0.214989 0.214959 0.214154 0.212275 0.210104 
0.207937 0.206252 0.204554 0.203511 0.202648 0.215925 0.213738 0.214784 0.215338 
0.2154 0.214911 0.213457 0.211264 0.20982 0.208566 0.207901 0.207499 0.207158 
0.215994 0.214042 0.214987 0.215588 0.215983 0.215703 0.214646 0.212957 0.211772 
0.211394 0.211148 0.2116 0.211511 0.216124 0.214387 0.215282 0.216014 0.216451 
0.216564 0.215962 0.214575 0.214046 0.213801 0.214367 0.21493 0.215424 0.216613 
0.215068 0.215963 0.216691 0.217324 0.217545 0.217211 0.216428 0.215795 0.216459 
0.216712 0.217508 0.217938 0.217089 0.215964 0.21704 0.217929 0.218475 0.218739 
0.218541 0.217604 0.217122 0.217343 0.218277 0.218531 0.21979 0.21804 0.217262 
0.219225 0.220527 0.221494 0.22166 0.220626 0.219368 0.218054 0.218058 0.218366 
0.219164 0.220734 0.218093 0.218302 0.2196 0.222153 0.224273 0.226084 0.227429 
0.227943 0.223362 0.219536 0.218949 0.219553 0.221414 0.182649 0.177733 0.174877 
0.173432 0.171923 0.171674 0.171357 0.169803 0.165721 0.157973 0.147987 0.136865 
0.127491 0.184053 0.17949 0.177306 0.176187 0.174853 0.17438 0.174376 0.174002 
0.171983 0.166786 0.159225 0.150416 0.142493 0.18419 0.17939 0.175941 0.174054 
0.172277 0.171652 0.171836 0.171977 0.170564 0.167068 0.161366 0.15528 0.146914 
0.186197 0.180466 0.176621 0.173387 0.170689 0.16926 0.169089 0.169229 0.16858 
0.166578 0.162822 0.157848 0.149783 0.187478 0.182457 0.178908 0.175271 0.171291 
0.168287 0.166809 0.166502 0.166432 0.165755 0.163747 0.159606 0.151892 0.189809 
0.184793 0.18179 0.17846 0.174253 0.170049 0.166293 0.164686 0.164612 0.164691 
0.163948 0.160804 0.153645 0.191472 0.188271 0.185168 0.18227 0.178406 0.173895 
0.168866 0.164764 0.163601 0.163701 0.163589 0.161174 0.155277 0.194313 0.191898 
0.188818 0.186426 0.182793 0.178976 0.173467 0.168075 0.164124 0.163306 0.16294 
0.161192 0.156833 0.196194 0.196008 0.192469 0.190372 0.187389 0.183974 0.179264 
0.173319 0.167892 0.164188 0.16291 0.161296 0.158667 0.198775 0.199513 0.195731 
0.194118 0.191447 0.188861 0.184931 0.179883 0.173708 0.168151 0.164072 0.162469 
0.160936 0.200564 0.202622 0.198752 0.197252 0.19523 0.193017 0.190255 0.186228 
0.180584 0.173861 0.168058 0.16524 0.164432 0.203041 0.205293 0.201387 0.200243 
0.198423 0.196724 0.194703 0.191622 0.18681 0.180361 0.173931 0.170207 0.16846 
0.204907 0.207533 0.203866 0.202695 0.201449 0.199745 0.198193 0.195772 0.191626 
0.186319 0.180609 0.176125 0.173299 0.207357 0.209567 0.206105 0.205203 0.203848 
0.202264 0.200819 0.198242 0.195171 0.190911 0.186557 0.182408 0.177769 0.209266 
0.211027 0.208084 0.207208 0.206119 0.204143 0.202318 0.20003 0.196934 0.194272 
0.191411 0.187705 0.182189 0.211322 0.212311 0.209878 0.209152 0.207861 0.205802 
0.20357 0.200937 0.198647 0.196739 0.194647 0.191012 0.185407 0.212933 0.212961 
0.21103 0.210745 0.209311 0.20727 0.20453 0.202258 0.200085 0.198495 0.196629 
0.193102 0.187876 0.214142 0.213341 0.212279 0.211566 0.210727 0.208328 0.205761 
0.20357 0.201703 0.199954 0.197373 0.194089 0.188906 0.21508 0.213222 0.212515 
0.212592 0.211238 0.209602 0.206992 0.205116 0.20323 0.200897 0.198226 0.194627 
0.189867 0.215539 0.213364 0.21313 0.212751 0.212214 0.210534 0.208304 0.206489 
0.204439 0.202067 0.198807 0.195286 0.190926 0.215784 0.213081 0.213196 0.213343 
0.212617 0.211564 0.209469 0.207575 0.205532 0.202812 0.199787 0.196283 0.19283 
0.215885 0.21322 0.213551 0.213512 0.213299 0.212255 0.210458 0.20846 0.206272 
0.203853 0.200902 0.198225 0.195935 0.215766 0.213145 0.213559 0.213943 0.213548 
0.212958 0.211228 0.209159 0.207137 0.204975 0.202988 0.201397 0.200401 0.215841 
0.213267 0.213828 0.213989 0.214102 0.213365 0.212043 0.20995 0.208174 0.206894 
0.205844 0.205534 0.205593 0.215803 0.213475 0.213894 0.214443 0.2143 0.214094 
0.212872 0.211023 0.209803 0.209315 0.209433 0.20999 0.210595 0.216069 0.213795 
0.214376 0.214663 0.215021 0.214637 0.213957 0.212397 0.211686 0.211949 0.212806 
0.213913 0.214717 0.216412 0.214476 0.214949 0.215576 0.215659 0.215748 0.215129 
0.214045 0.213752 0.214529 0.215724 0.21683 0.217738 0.216938 0.215212 0.216217 
0.216666 0.21703 0.216855 0.216456 0.21551 0.215091 0.216257 0.217646 0.218716 
0.219757 0.217706 0.216635 0.218252 0.219339 0.219912 0.219641 0.218756 0.217195 
0.216453 0.217029 0.218092 0.219318 0.220997 0.217918 0.217401 0.219237 0.221144 
0.223595 0.224537 0.226208 0.2261 0.220804 0.218408 0.218675 0.219781 0.22141 
0.182366 0.177384 0.174633 0.172894 0.171278 0.170606 0.170211 0.168756 0.165242 
0.158834 0.149243 0.138137 0.128261 0.183822 0.179758 0.177441 0.176193 0.174711 
0.173774 0.173274 0.172565 0.170545 0.166209 0.159198 0.151118 0.142581 0.1846 
0.180011 0.17661 0.174741 0.17286 0.171818 0.171504 0.171171 0.169538 0.166102 
0.161146 0.155516 0.148037 0.185648 0.181463 0.177564 0.174506 0.171788 0.170033 
0.169408 0.168972 0.167806 0.165581 0.162314 0.158399 0.151669 0.188034 0.183151 
0.179709 0.176292 0.172454 0.169389 0.167447 0.166589 0.165768 0.16473 0.162912 
0.159832 0.153446 0.189352 0.185625 0.182432 0.179248 0.175254 0.170881 0.167007 
0.164869 0.164187 0.163644 0.163014 0.160209 0.154247 0.19184 0.188785 0.185547 
0.182892 0.178908 0.174699 0.169271 0.165103 0.163359 0.1632 0.162568 0.160391 
0.155123 0.19362 0.192624 0.189112 0.186721 0.183279 0.179275 0.174101 0.168434 
0.164546 0.163206 0.162756 0.160619 0.156749 0.196139 0.196308 0.192468 0.190653 
0.187518 0.18437 0.179645 0.174238 0.168641 0.165023 0.163344 0.161877 0.159123 
0.197893 0.199638 0.195707 0.194054 0.191656 0.188871 0.185405 0.180609 0.174944 
0.16934 0.165472 0.163722 0.162451 0.200226 0.202491 0.198451 0.19723 0.195143 
0.193036 0.190359 0.186671 0.181435 0.175244 0.169317 0.166959 0.165695 0.201952 
0.20492 0.201076 0.199844 0.1984 0.19643 0.194488 0.191579 0.186962 0.18091 
0.174732 0.170868 0.169297 0.204344 0.207048 0.203289 0.202418 0.201056 0.199342 
0.197817 0.195052 0.19132 0.185994 0.18016 0.17582 0.17258 0.206204 0.20882 
0.205464 0.204544 0.203571 0.201659 0.200039 0.197724 0.193932 0.189871 0.185378 
0.181018 0.176598 0.20838 0.210541 0.207422 0.206723 0.205525 0.203701 0.201841 
0.198951 0.196078 0.192944 0.18977 0.1862 0.180017 0.210142 0.211691 0.209116 
0.208615 0.20739 0.205473 0.202904 0.200453 0.197675 0.195386 0.193189 0.189328 
0.183834 0.211718 0.212599 0.210615 0.209984 0.208976 0.206809 0.204168 0.201669 
0.199389 0.197613 0.195336 0.192001 0.186653 0.212992 0.212973 0.211285 0.211226 
0.209811 0.208156 0.205312 0.203197 0.201207 0.199356 0.197271 0.194226 0.189133 
0.213925 0.213114 0.212025 0.211548 0.210828 0.208986 0.206662 0.204736 0.202959 
0.201208 0.198672 0.195742 0.190415 0.214556 0.21294 0.212191 0.212185 0.211212 
0.210018 0.207873 0.20618 0.204572 0.202481 0.199958 0.196457 0.191415 0.214915 
0.213035 0.212542 0.212374 0.211908 0.210782 0.209025 0.207323 0.205596 0.20357 
0.200518 0.197063 0.192647 0.215052 0.212844 0.212626 0.212772 0.212249 0.211515 
0.209923 0.208088 0.206355 0.203975 0.201304 0.198238 0.195377 0.215205 0.212903 
0.212807 0.212868 0.212699 0.211948 0.210627 0.208651 0.20676 0.204764 0.202532 
0.20066 0.199429 0.215186 0.212859 0.212823 0.213133 0.212835 0.212401 0.211139 
0.209161 0.207461 0.205905 0.204865 0.204211 0.204097 0.215409 0.213044 0.213058 
0.213248 0.213255 0.212731 0.211775 0.209921 0.208552 0.207919 0.207746 0.208066 
0.20849 0.215577 0.21332 0.213345 0.213704 0.213573 0.213335 0.212472 0.21097 
0.210017 0.210035 0.210775 0.211612 0.212491 0.216056 0.213916 0.21411 0.214354 
0.214474 0.214112 0.213517 0.212335 0.211697 0.212364 0.213439 0.214659 0.215909 
0.21645 0.214705 0.215137 0.215609 0.215549 0.215345 0.214695 0.213681 0.213104 
0.214156 0.215777 0.217274 0.218752 0.217197 0.215794 0.217251 0.217942 0.218434 
0.217996 0.216754 0.215513 0.21443 0.215354 0.216947 0.218736 0.220635 0.2172 
0.216755 0.217756 0.219867 0.221485 0.223139 0.22437 0.223781 0.21835 0.217166 
0.218045 0.219658 0.22108 0.181542 0.176809 0.173673 0.171922 0.169744 0.168903 
0.168286 0.167379 0.16477 0.159174 0.150537 0.13952 0.129512 0.184075 0.179642 
0.177463 0.176134 0.174153 0.172602 0.171591 0.170636 0.169069 0.165264 0.159086 
0.151254 0.143143 0.184488 0.180592 0.177296 0.175302 0.173302 0.171762 0.170977 
0.169916 0.168203 0.164716 0.159965 0.154934 0.148092 0.186596 0.182183 0.178632 
0.175847 0.173137 0.171161 0.169958 0.168774 0.166879 0.16411 0.16087 0.157599 
0.151805 0.187829 0.18414 0.180916 0.177951 0.174481 0.171279 0.169003 0.167192 
0.165524 0.163638 0.161724 0.159097 0.153915 0.190028 0.186458 0.183467 0.180869 
0.177123 0.173249 0.169081 0.16627 0.164527 0.163371 0.162221 0.159949 0.154835 
0.191496 0.189638 0.186503 0.184125 0.180635 0.176535 0.171524 0.166932 0.164637 
0.163668 0.162993 0.160557 0.155823 0.193842 0.192978 0.189551 0.187598 0.184218 
0.180755 0.175667 0.17063 0.166557 0.165086 0.164087 0.161863 0.157949 0.195486 
0.196376 0.192683 0.190834 0.187994 0.184778 0.18078 0.175861 0.17118 0.167546 
0.165835 0.163728 0.161326 0.19776 0.19933 0.195488 0.194044 0.191423 0.188829 
0.185519 0.181525 0.17656 0.171723 0.167903 0.166387 0.164485 0.19934 0.20199 
0.19827 0.196834 0.194861 0.192319 0.189826 0.186475 0.18179 0.176283 0.171161 
0.168585 0.167381 0.201703 0.204212 0.200584 0.19955 0.197821 0.195615 0.193505 
0.190377 0.186225 0.180705 0.174894 0.171534 0.169515 0.203411 0.206234 0.202879 
0.201833 0.20067 0.198394 0.196472 0.193772 0.189497 0.184687 0.17933 0.174854 
0.172065 0.205686 0.208115 0.204904 0.20416 0.202973 0.200908 0.199108 0.195914 
0.192383 0.18803 0.183415 0.17912 0.174526 0.207449 0.209663 0.206894 0.206233 
0.205175 0.20324 0.20078 0.198158 0.194488 0.190994 0.187534 0.183544 0.177886 
0.209192 0.211098 0.208718 0.208075 0.207086 0.20505 0.202589 0.199604 0.196664 
0.193963 0.191118 0.187304 0.181604 0.210714 0.211932 0.209849 0.209747 0.208286 
0.206758 0.20366 0.20142 0.198828 0.196589 0.194382 0.190947 0.185584 0.211906 
0.212454 0.210901 0.210306 0.209579 0.207604 0.205087 0.202873 0.200974 0.199332 
0.19708 0.194218 0.18862 0.212838 0.212572 0.211177 0.21115 0.209931 0.208721 
0.206236 0.204522 0.202959 0.201392 0.19941 0.196627 0.190914 0.213584 0.212672 
0.211639 0.211295 0.210742 0.209379 0.20755 0.205891 0.204591 0.203185 0.2008 
0.197828 0.19221 0.213963 0.21252 0.211794 0.211759 0.211059 0.210229 0.208624 
0.207034 0.20579 0.204005 0.201736 0.198478 0.193769 0.214315 0.212533 0.211995 
0.211917 0.211582 0.210798 0.209548 0.207765 0.206385 0.204652 0.202229 0.19932 
0.196206 0.214396 0.212379 0.212005 0.212173 0.21177 0.211304 0.210136 0.2083 
0.206798 0.204983 0.203061 0.201054 0.199428 0.214652 0.212403 0.212085 0.212189 
0.212068 0.211516 0.210608 0.208691 0.207133 0.205697 0.204334 0.203195 0.202569 
0.214779 0.212472 0.212225 0.212437 0.212208 0.211888 0.210942 0.209229 0.207733 
0.206756 0.206203 0.205857 0.205952 0.215156 0.212767 0.212575 0.212704 0.212644 
0.212206 0.211491 0.209882 0.208612 0.208197 0.208311 0.208718 0.209622 0.215532 
0.213314 0.213224 0.213459 0.213272 0.213001 0.212234 0.210953 0.209824 0.209941 
0.210649 0.21179 0.21351 0.216004 0.214032 0.214301 0.214492 0.214449 0.213958 
0.213331 0.212107 0.211038 0.2118 0.213325 0.215052 0.217057 0.216611 0.21518 
0.216007 0.216816 0.216924 0.216349 0.215199 0.21375 0.212528 0.213394 0.215251 
0.217566 0.219682 0.216532 0.215681 0.216841 0.217961 0.220129 0.221011 0.222542 
0.221356 0.216159 0.215579 0.217094 0.219021 0.220397 0.181288 0.176141 0.172802 
0.170346 0.167936 0.166518 0.16602 0.165465 0.163781 0.159538 0.151408 0.14089 
0.130605 0.183998 0.179938 0.177653 0.176125 0.173949 0.171708 0.170136 0.169073 
0.167616 0.164799 0.15911 0.151841 0.143385 0.185409 0.181079 0.178008 0.176003 
0.17388 0.172046 0.170456 0.168988 0.166691 0.163445 0.158993 0.154257 0.147727 
0.186685 0.182954 0.179707 0.177243 0.174616 0.172506 0.170683 0.168634 0.165942 
0.162515 0.159258 0.156215 0.151055 0.18881 0.184933 0.182127 0.179755 0.17657 
0.173651 0.170914 0.168371 0.165483 0.162623 0.160228 0.157993 0.153512 0.19009 
0.187387 0.184823 0.182746 0.179621 0.176013 0.172056 0.168499 0.165918 0.163637 
0.162224 0.159767 0.155329 0.192155 0.190129 0.187436 0.185739 0.182631 0.179369 
0.17453 0.170165 0.167201 0.165977 0.164469 0.162179 0.157549 0.193531 0.193245 
0.190257 0.188491 0.185658 0.18238 0.1782 0.173566 0.170121 0.168127 0.167191 
0.164379 0.16061 0.195599 0.196042 0.192804 0.191253 0.188374 0.185507 0.181834 
0.177901 0.173853 0.170853 0.168787 0.166732 0.163747 0.19712 0.198776 0.19553 
0.193869 0.191394 0.188352 0.185462 0.181923 0.177886 0.173654 0.17033 0.168348 
0.166666 0.199315 0.201086 0.197871 0.19665 0.194304 0.191579 0.188805 0.185556 
0.181471 0.176825 0.171996 0.170004 0.16832 0.200952 0.203309 0.200332 0.199075 
0.197426 0.194486 0.192118 0.188925 0.184666 0.179849 0.174794 0.171571 0.169816 
0.203191 0.205281 0.202385 0.201586 0.200065 0.197524 0.195188 0.191823 0.18781 
0.183086 0.17798 0.174032 0.171062 0.204915 0.207102 0.204543 0.20366 0.202656 
0.20018 0.197818 0.194755 0.190583 0.18617 0.181628 0.177246 0.173118 0.206795 
0.208812 0.206493 0.205846 0.204805 0.202663 0.200311 0.197038 0.193252 0.189393 
0.185307 0.181304 0.175535 0.208438 0.210125 0.208106 0.207878 0.206582 0.204965 
0.201925 0.199321 0.195913 0.192443 0.189367 0.185488 0.179797 0.209792 0.211108 
0.209543 0.208921 0.208212 0.206289 0.203586 0.201043 0.198403 0.196011 0.193145 
0.189662 0.184018 0.210966 0.211668 0.210123 0.21011 0.208778 0.207624 0.20473 
0.2028 0.200806 0.198844 0.196725 0.193746 0.187834 0.211942 0.211953 0.210762 
0.210287 0.209765 0.208184 0.206116 0.204213 0.202818 0.201551 0.19937 0.196807 
0.190679 0.212598 0.212015 0.211019 0.210861 0.210007 0.209102 0.207192 0.205578 
0.20456 0.203208 0.201508 0.198828 0.193312 0.213175 0.212039 0.211287 0.211052 