# vtk DataFile Version 5.1
vtk output
ASCII
DATASET POLYDATA
POINTS 330 float
0 2.85 -0.5 -0.003 2.853 -0.5 -0.00604287 2.85604 -0.5 
-0.0091721 2.85917 -0.5 -0.0124324 2.86243 -0.5 -0.0158704 2.86587 -0.5 
-0.0195351 2.86954 -0.5 -0.0234791 2.87348 -0.5 -0.0277585 2.87776 -0.5 
-0.0324346 2.88243 -0.5 -0.0375743 2.88757 -0.5 -0.0432509 2.89325 -0.5 
-0.0495456 2.89955 -0.5 -0.0565483 2.90655 -0.5 -0.0643591 2.91436 -0.5 
-0.0730896 2.92309 -0.5 -0.0828646 2.93286 -0.5 -0.0938238 2.94382 -0.5 
-0.106124 2.95612 -0.5 -0.11994 2.96994 -0.5 -0.135471 2.98547 -0.5 
-0.15 3 -0.5 0 2.853 -0.503 -0.003 2.856 -0.503 
-0.00604287 2.85904 -0.503 -0.0091721 2.86217 -0.503 -0.0124324 2.86543 -0.503 
-0.0158704 2.86887 -0.503 -0.0195351 2.87254 -0.503 -0.0234791 2.87648 -0.503 
-0.0277585 2.88076 -0.503 -0.0324346 2.88543 -0.503 -0.0375743 2.89057 -0.503 
-0.0432509 2.89625 -0.503 -0.0495456 2.90255 -0.503 -0.0565483 2.90955 -0.503 
-0.0643591 2.91736 -0.503 -0.0730896 2.92609 -0.503 -0.0828646 2.93586 -0.503 
-0.0938238 2.94682 -0.503 -0.106124 2.95912 -0.503 -0.11994 2.97294 -0.503 
-0.135471 2.98847 -0.503 -0.147 3 -0.503 0 2.8561 -0.506095 
-0.003 2.8591 -0.506095 -0.00604287 2.86214 -0.506095 -0.0091721 2.86527 -0.506095 
-0.0124324 2.86853 -0.506095 -0.0158704 2.87197 -0.506095 -0.0195351 2.87563 -0.506095 
-0.0234791 2.87957 -0.506095 -0.0277585 2.88385 -0.506095 -0.0324346 2.88853 -0.506095 
-0.0375743 2.89367 -0.506095 -0.0432509 2.89935 -0.506095 -0.0495456 2.90564 -0.506095 
-0.0565483 2.91264 -0.506095 -0.0643591 2.92045 -0.506095 -0.0730896 2.92918 -0.506095 
-0.0828646 2.93896 -0.506095 -0.0938238 2.94992 -0.506095 -0.106124 2.96222 -0.506095 
-0.11994 2.97604 -0.506095 -0.135471 2.99157 -0.506095 -0.143905 3 -0.506095 
0 2.85938 -0.509384 -0.003 2.86238 -0.509384 -0.00604287 2.86543 -0.509384 
-0.0091721 2.86856 -0.509384 -0.0124324 2.87182 -0.509384 -0.0158704 2.87525 -0.509384 
-0.0195351 2.87892 -0.509384 -0.0234791 2.88286 -0.509384 -0.0277585 2.88714 -0.509384 
-0.0324346 2.89182 -0.509384 -0.0375743 2.89696 -0.509384 -0.0432509 2.90263 -0.509384 
-0.0495456 2.90893 -0.509384 -0.0565483 2.91593 -0.509384 -0.0643591 2.92374 -0.509384 
-0.0730896 2.93247 -0.509384 -0.0828646 2.94225 -0.509384 -0.0938238 2.95321 -0.509384 
-0.106124 2.96551 -0.509384 -0.11994 2.97932 -0.509384 -0.135471 2.99485 -0.509384 
-0.140616 3 -0.509384 0 2.86297 -0.512971 -0.003 2.86597 -0.512971 
-0.00604287 2.86901 -0.512971 -0.0091721 2.87214 -0.512971 -0.0124324 2.8754 -0.512971 
-0.0158704 2.87884 -0.512971 -0.0195351 2.88251 -0.512971 -0.0234791 2.88645 -0.512971 
-0.0277585 2.89073 -0.512971 -0.0324346 2.89541 -0.512971 -0.0375743 2.90055 -0.512971 
-0.0432509 2.90622 -0.512971 -0.0495456 2.91252 -0.512971 -0.0565483 2.91952 -0.512971 
-0.0643591 2.92733 -0.512971 -0.0730896 2.93606 -0.512971 -0.0828646 2.94584 -0.512971 
-0.0938238 2.95679 -0.512971 -0.106124 2.96909 -0.512971 -0.11994 2.98291 -0.512971 
-0.135471 2.99844 -0.512971 -0.137029 3 -0.512971 -0.135471 3 -0.514529 
0 2.86697 -0.516969 -0.003 2.86997 -0.516969 -0.00604287 2.87301 -0.516969 
-0.0091721 2.87614 -0.516969 -0.0124324 2.8794 -0.516969 -0.0158704 2.88284 -0.516969 
-0.0195351 2.8865 -0.516969 -0.0234791 2.89045 -0.516969 -0.0277585 2.89473 -0.516969 
-0.0324346 2.8994 -0.516969 -0.0375743 2.90454 -0.516969 -0.0432509 2.91022 -0.516969 
-0.0495456 2.91651 -0.516969 -0.0565483 2.92352 -0.516969 -0.0643591 2.93133 -0.516969 
-0.0730896 2.94006 -0.516969 -0.0828646 2.94983 -0.516969 -0.0938238 2.96079 -0.516969 
-0.106124 2.97309 -0.516969 -0.11994 2.98691 -0.516969 -0.133031 3 -0.516969 
0 2.87151 -0.521506 -0.003 2.87451 -0.521506 -0.00604287 2.87755 -0.521506 
-0.0091721 2.88068 -0.521506 -0.0124324 2.88394 -0.521506 -0.0158704 2.88738 -0.521506 
-0.0195351 2.89104 -0.521506 -0.0234791 2.89499 -0.521506 -0.0277585 2.89926 -0.521506 
-0.0324346 2.90394 -0.521506 -0.0375743 2.90908 -0.521506 -0.0432509 2.91476 -0.521506 
-0.0495456 2.92105 -0.521506 -0.0565483 2.92805 -0.521506 -0.0643591 2.93587 -0.521506 
-0.0730896 2.9446 -0.521506 -0.0828646 2.95437 -0.521506 -0.0938238 2.96533 -0.521506 
-0.106124 2.97763 -0.521506 -0.11994 2.99145 -0.521506 -0.128494 3 -0.521506 
0 2.87673 -0.526726 -0.003 2.87973 -0.526726 -0.00604287 2.88277 -0.526726 
-0.0091721 2.8859 -0.526726 -0.0124324 2.88916 -0.526726 -0.0158704 2.8926 -0.526726 
-0.0195351 2.89626 -0.526726 -0.0234791 2.90021 -0.526726 -0.0277585 2.90448 -0.526726 
-0.0324346 2.90916 -0.526726 -0.0375743 2.9143 -0.526726 -0.0432509 2.91998 -0.526726 
-0.0495456 2.92627 -0.526726 -0.0565483 2.93327 -0.526726 -0.0643591 2.94109 -0.526726 
-0.0730896 2.94982 -0.526726 -0.0828646 2.95959 -0.526726 -0.0938238 2.97055 -0.526726 
-0.106124 2.98285 -0.526726 -0.11994 2.99667 -0.526726 -0.123274 3 -0.526726 
-0.11994 3 -0.53006 0 2.8828 -0.532795 -0.003 2.8858 -0.532795 
-0.00604287 2.88884 -0.532795 -0.0091721 2.89197 -0.532795 -0.0124324 2.89523 -0.532795 
-0.0158704 2.89867 -0.532795 -0.0195351 2.90233 -0.532795 -0.0234791 2.90627 -0.532795 
-0.0277585 2.91055 -0.532795 -0.0324346 2.91523 -0.532795 -0.0375743 2.92037 -0.532795 
-0.0432509 2.92605 -0.532795 -0.0495456 2.93234 -0.532795 -0.0565483 2.93934 -0.532795 
-0.0643591 2.94715 -0.532795 -0.0730896 2.95588 -0.532795 -0.0828646 2.96566 -0.532795 
-0.0938238 2.97662 -0.532795 -0.106124 2.98892 -0.532795 -0.117205 3 -0.532795 
0 2.8899 -0.539904 -0.003 2.8929 -0.539904 -0.00604287 2.89595 -0.539904 
-0.0091721 2.89908 -0.539904 -0.0124324 2.90234 -0.539904 -0.0158704 2.90577 -0.539904 
-0.0195351 2.90944 -0.539904 -0.0234791 2.91338 -0.539904 -0.0277585 2.91766 -0.539904 
-0.0324346 2.92234 -0.539904 -0.0375743 2.92748 -0.539904 -0.0432509 2.93315 -0.539904 
-0.0495456 2.93945 -0.539904 -0.0565483 2.94645 -0.539904 -0.0643591 2.95426 -0.539904 
-0.0730896 2.96299 -0.539904 -0.0828646 2.97277 -0.539904 -0.0938238 2.98373 -0.539904 
-0.106124 2.99603 -0.539904 -0.110096 3 -0.539904 -0.106124 3 -0.543876 
0 2.89828 -0.548281 -0.003 2.90128 -0.548281 -0.00604287 2.90432 -0.548281 
-0.0091721 2.90745 -0.548281 -0.0124324 2.91071 -0.548281 -0.0158704 2.91415 -0.548281 
-0.0195351 2.91782 -0.548281 -0.0234791 2.92176 -0.548281 -0.0277585 2.92604 -0.548281 
-0.0324346 2.93072 -0.548281 -0.0375743 2.93586 -0.548281 -0.0432509 2.94153 -0.548281 
-0.0495456 2.94783 -0.548281 -0.0565483 2.95483 -0.548281 -0.0643591 2.96264 -0.548281 
-0.0730896 2.97137 -0.548281 -0.0828646 2.98115 -0.548281 -0.0938238 2.9921 -0.548281 
-0.101719 3 -0.548281 -0.0938238 3 -0.556176 0 2.90819 -0.55819 
-0.003 2.91119 -0.55819 -0.00604287 2.91423 -0.55819 -0.0091721 2.91736 -0.55819 
-0.0124324 2.92062 -0.55819 -0.0158704 2.92406 -0.55819 -0.0195351 2.92773 -0.55819 
-0.0234791 2.93167 -0.55819 -0.0277585 2.93595 -0.55819 -0.0324346 2.94062 -0.55819 
-0.0375743 2.94576 -0.55819 -0.0432509 2.95144 -0.55819 -0.0495456 2.95774 -0.55819 
-0.0565483 2.96474 -0.55819 -0.0643591 2.97255 -0.55819 -0.0730896 2.98128 -0.55819 
-0.0828646 2.99105 -0.55819 -0.09181 3 -0.55819 -0.0828646 3 -0.567135 
0 2.91995 -0.569947 -0.003 2.92295 -0.569947 -0.00604287 2.92599 -0.569947 
-0.0091721 2.92912 -0.569947 -0.0124324 2.93238 -0.569947 -0.0158704 2.93582 -0.569947 
-0.0195351 2.93948 -0.569947 -0.0234791 2.94343 -0.569947 -0.0277585 2.94771 -0.569947 
-0.0324346 2.95238 -0.569947 -0.0375743 2.95752 -0.569947 -0.0432509 2.9632 -0.569947 
-0.0495456 2.96949 -0.569947 -0.0565483 2.9765 -0.569947 -0.0643591 2.98431 -0.569947 
-0.0730896 2.99304 -0.569947 -0.080053 3 -0.569947 -0.0730896 3 -0.57691 
0 2.93392 -0.583924 -0.003 2.93692 -0.583924 -0.00604287 2.93997 -0.583924 
-0.0091721 2.9431 -0.583924 -0.0124324 2.94636 -0.583924 -0.0158704 2.94979 -0.583924 
-0.0195351 2.95346 -0.583924 -0.0234791 2.9574 -0.583924 -0.0277585 2.96168 -0.583924 
-0.0324346 2.96636 -0.583924 -0.0375743 2.9715 -0.583924 -0.0432509 2.97717 -0.583924 
-0.0495456 2.98347 -0.583924 -0.0495456 3 -0.600454 -0.0565483 2.99047 -0.583924 
-0.0565483 3 -0.593452 -0.0643591 2.99828 -0.583924 -0.066076 3 -0.583924 
-0.0643591 3 -0.585641 0 2.95057 -0.600565 -0.003 2.95357 -0.600565 
-0.00604287 2.95661 -0.600565 -0.0091721 2.95974 -0.600565 -0.0124324 2.963 -0.600565 
-0.0158704 2.96644 -0.600565 -0.0195351 2.9701 -0.600565 -0.0234791 2.97404 -0.600565 
-0.0277585 2.97832 -0.600565 -0.0324346 2.983 -0.600565 -0.0324346 3 -0.617565 
-0.0375743 2.98814 -0.600565 -0.0375743 3 -0.612426 -0.0432509 2.99382 -0.600565 
-0.049435 3 -0.600565 -0.0432509 3 -0.606749 0 2.9704 -0.6204 
-0.003 2.9734 -0.6204 -0.00604287 2.97644 -0.6204 -0.00604287 3 -0.643957 
-0.0091721 2.97957 -0.6204 -0.0091721 3 -0.640828 -0.0124324 2.98283 -0.6204 
-0.0124324 3 -0.637568 -0.0158704 2.98627 -0.6204 -0.0158704 3 -0.63413 
-0.0195351 2.98994 -0.6204 -0.0195351 3 -0.630465 -0.0234791 2.99388 -0.6204 
-0.0234791 3 -0.626521 -0.0277585 2.99816 -0.6204 -0.0296 3 -0.6204 
-0.0277585 3 -0.622241 0 2.99406 -0.644057 0 3 -0.65 
-0.003 2.99706 -0.644057 -0.005943 3 -0.644057 -0.003 3 -0.647 

POLYGONS 584 1749
OFFSETS vtktypeint64
0 3 6 9 12 15 18 21 24 
27 30 33 36 39 42 45 48 51 
54 57 60 63 66 69 72 75 78 
81 84 87 90 93 96 99 102 105 
108 111 114 117 120 123 126 129 132 
135 138 141 144 147 150 153 156 159 
162 165 168 171 174 177 180 183 186 
189 192 195 198 201 204 207 210 213 
216 219 222 225 228 231 234 237 240 
243 246 249 252 255 258 261 264 267 
270 273 276 279 282 285 288 291 294 
297 300 303 306 309 312 315 318 321 
324 327 330 333 336 339 342 345 348 
351 354 357 360 363 366 369 372 375 
378 381 384 387 390 393 396 399 402 
405 408 411 414 417 420 423 426 429 
432 435 438 441 444 447 450 453 456 
459 462 465 468 471 474 477 480 483 
486 489 492 495 498 501 504 507 510 
513 516 519 522 525 528 531 534 537 
540 543 546 549 552 555 558 561 564 
567 570 573 576 579 582 585 588 591 
594 597 600 603 606 609 612 615 618 
621 624 627 630 633 636 639 642 645 
648 651 654 657 660 663 666 669 672 
675 678 681 684 687 690 693 696 699 
702 705 708 711 714 717 720 723 726 
729 732 735 738 741 744 747 750 753 
756 759 762 765 768 771 774 777 780 
783 786 789 792 795 798 801 804 807 
810 813 816 819 822 825 828 831 834 
837 840 843 846 849 852 855 858 861 
864 867 870 873 876 879 882 885 888 
891 894 897 900 903 906 909 912 915 
918 921 924 927 930 933 936 939 942 
945 948 951 954 957 960 963 966 969 
972 975 978 981 984 987 990 993 996 
999 1002 1005 1008 1011 1014 1017 1020 1023 
1026 1029 1032 1035 1038 1041 1044 1047 1050 
1053 1056 1059 1062 1065 1068 1071 1074 1077 
1080 1083 1086 1089 1092 1095 1098 1101 1104 
1107 1110 1113 1116 1119 1122 1125 1128 1131 
1134 1137 1140 1143 1146 1149 1152 1155 1158 
1161 1164 1167 1170 1173 1176 1179 1182 1185 
1188 1191 1194 1197 1200 1203 1206 1209 1212 
1215 1218 1221 1224 1227 1230 1233 1236 1239 
1242 1245 1248 1251 1254 1257 1260 1263 1266 
1269 1272 1275 1278 1281 1284 1287 1290 1293 
1296 1299 1302 1305 1308 1311 1314 1317 1320 
1323 1326 1329 1332 1335 1338 1341 1344 1347 
1350 1353 1356 1359 1362 1365 1368 1371 1374 
1377 1380 1383 1386 1389 1392 1395 1398 1401 
1404 1407 1410 1413 1416 1419 1422 1425 1428 
1431 1434 1437 1440 1443 1446 1449 1452 1455 
1458 1461 1464 1467 1470 1473 1476 1479 1482 
1485 1488 1491 1494 1497 1500 1503 1506 1509 
1512 1515 1518 1521 1524 1527 1530 1533 1536 
1539 1542 1545 1548 1551 1554 1557 1560 1563 
1566 1569 1572 1575 1578 1581 1584 1587 1590 
1593 1596 1599 1602 1605 1608 1611 1614 1617 
1620 1623 1626 1629 1632 1635 1638 1641 1644 
1647 1650 1653 1656 1659 1662 1665 1668 1671 
1674 1677 1680 1683 1686 1689 1692 1695 1698 
1701 1704 1707 1710 1713 1716 1719 1722 1725 
1728 1731 1734 1737 1740 1743 1746 1749 
CONNECTIVITY vtktypeint64
0 1 22 22 1 23 1 2 23 
23 2 24 2 3 24 24 3 25 
3 4 25 25 4 26 4 5 26 
26 5 27 5 6 27 27 6 28 
6 7 28 28 7 29 7 8 29 
29 8 30 8 9 30 30 9 31 
9 10 31 31 10 32 10 11 32 
32 11 33 11 12 33 33 12 34 
12 13 34 34 13 35 13 14 35 
35 14 36 14 15 36 36 15 37 
15 16 37 37 16 38 16 17 38 
38 17 39 17 18 39 39 18 40 
18 19 40 40 19 41 19 20 41 
41 20 42 42 20 21 43 42 21 
22 23 44 44 23 45 23 24 45 
45 24 46 24 25 46 46 25 47 
25 26 47 47 26 48 26 27 48 
48 27 49 27 28 49 49 28 50 
28 29 50 50 29 51 29 30 51 
51 30 52 30 31 52 52 31 53 
31 32 53 53 32 54 32 33 54 
54 33 55 33 34 55 55 34 56 
34 35 56 56 35 57 35 36 57 
57 36 58 36 37 58 58 37 59 
37 38 59 59 38 60 38 39 60 
60 39 61 39 40 61 61 40 62 
40 41 62 62 41 63 41 42 63 
63 42 64 64 42 43 65 64 43 
44 45 66 66 45 67 45 46 67 
67 46 68 46 47 68 68 47 69 
47 48 69 69 48 70 48 49 70 
70 49 71 49 50 71 71 50 72 
50 51 72 72 51 73 51 52 73 
73 52 74 52 53 74 74 53 75 
53 54 75 75 54 76 54 55 76 
76 55 77 55 56 77 77 56 78 
56 57 78 78 57 79 57 58 79 
79 58 80 58 59 80 80 59 81 
59 60 81 81 60 82 60 61 82 
82 61 83 61 62 83 83 62 84 
62 63 84 84 63 85 63 64 85 
85 64 86 86 64 65 87 86 65 
66 67 88 88 67 89 67 68 89 
89 68 90 68 69 90 90 69 91 
69 70 91 91 70 92 70 71 92 
92 71 93 71 72 93 93 72 94 
72 73 94 94 73 95 73 74 95 
95 74 96 74 75 96 96 75 97 
75 76 97 97 76 98 76 77 98 
98 77 99 77 78 99 99 78 100 
78 79 100 100 79 101 79 80 101 
101 80 102 80 81 102 102 81 103 
81 82 103 103 82 104 82 83 104 
104 83 105 83 84 105 105 84 106 
84 85 106 106 85 107 85 86 107 
107 86 108 108 86 87 109 108 87 
88 89 111 111 89 112 89 90 112 
112 90 113 90 91 113 113 91 114 
91 92 114 114 92 115 92 93 115 
115 93 116 93 94 116 116 94 117 
94 95 117 117 95 118 95 96 118 
118 96 119 96 97 119 119 97 120 
97 98 120 120 98 121 98 99 121 
121 99 122 99 100 122 122 100 123 
100 101 123 123 101 124 101 102 124 
124 102 125 102 103 125 125 103 126 
103 104 126 126 104 127 104 105 127 
127 105 128 105 106 128 128 106 129 
106 107 129 129 107 130 110 131 130 
110 130 108 108 130 107 108 109 110 
111 112 132 132 112 133 112 113 133 
133 113 134 113 114 134 134 114 135 
114 115 135 135 115 136 115 116 136 
136 116 137 116 117 137 137 117 138 
117 118 138 138 118 139 118 119 139 
139 119 140 119 120 140 140 120 141 
120 121 141 141 121 142 121 122 142 
142 122 143 122 123 143 143 123 144 
123 124 144 144 124 145 124 125 145 
145 125 146 125 126 146 146 126 147 
126 127 147 147 127 148 127 128 148 
148 128 149 128 129 149 149 129 150 
129 130 150 150 130 151 151 130 131 
152 151 131 132 133 153 153 133 154 
133 134 154 154 134 155 134 135 155 
155 135 156 135 136 156 156 136 157 
136 137 157 157 137 158 137 138 158 
158 138 159 138 139 159 159 139 160 
139 140 160 160 140 161 140 141 161 
161 141 162 141 142 162 162 142 163 
142 143 163 163 143 164 143 144 164 
164 144 165 144 145 165 165 145 166 
145 146 166 166 146 167 146 147 167 
167 147 168 147 148 168 168 148 169 
148 149 169 169 149 170 149 150 170 
170 150 171 150 151 171 171 151 172 
172 151 152 173 172 152 153 154 175 
175 154 176 154 155 176 176 155 177 
155 156 177 177 156 178 156 157 178 
178 157 179 157 158 179 179 158 180 
158 159 180 180 159 181 159 160 181 
181 160 182 160 161 182 182 161 183 
161 162 183 183 162 184 162 163 184 
184 163 185 163 164 185 185 164 186 
164 165 186 186 165 187 165 166 187 
187 166 188 166 167 188 188 167 189 
167 168 189 189 168 190 168 169 190 
190 169 191 169 170 191 191 170 192 
170 171 192 192 171 193 174 194 193 
174 193 172 172 193 171 172 173 174 
175 176 195 195 176 196 176 177 196 
196 177 197 177 178 197 197 178 198 
178 179 198 198 179 199 179 180 199 
199 180 200 180 181 200 200 181 201 
181 182 201 201 182 202 182 183 202 
202 183 203 183 184 203 203 184 204 
184 185 204 204 185 205 185 186 205 
205 186 206 186 187 206 206 187 207 
187 188 207 207 188 208 188 189 208 
208 189 209 189 190 209 209 190 210 
190 191 210 210 191 211 191 192 211 
211 192 212 192 193 212 212 193 213 
213 193 194 214 213 194 195 196 216 
216 196 217 196 197 217 217 197 218 
197 198 218 218 198 219 198 199 219 
219 199 220 199 200 220 220 200 221 
200 201 221 221 201 222 201 202 222 
222 202 223 202 203 223 223 203 224 
203 204 224 224 204 225 204 205 225 
225 205 226 205 206 226 226 206 227 
206 207 227 227 207 228 207 208 228 
228 208 229 208 209 229 229 209 230 
209 210 230 230 210 231 210 211 231 
231 211 232 211 212 232 232 212 233 
215 234 233 215 233 213 213 233 212 
213 214 215 216 217 236 236 217 237 
217 218 237 237 218 238 218 219 238 
238 219 239 219 220 239 239 220 240 
220 221 240 240 221 241 221 222 241 
241 222 242 222 223 242 242 223 243 
223 224 243 243 224 244 224 225 244 
244 225 245 225 226 245 245 226 246 
226 227 246 246 227 247 227 228 247 
247 228 248 228 229 248 248 229 249 
229 230 249 249 230 250 230 231 250 
250 231 251 231 232 251 251 232 252 
235 253 252 235 252 233 233 252 232 
233 234 235 236 237 255 255 237 256 
237 238 256 256 238 257 238 239 257 
257 239 258 239 240 258 258 240 259 
240 241 259 259 241 260 241 242 260 
260 242 261 242 243 261 261 243 262 
243 244 262 262 244 263 244 245 263 
263 245 264 245 246 264 264 246 265 
246 247 265 265 247 266 247 248 266 
266 248 267 248 249 267 267 249 268 
249 250 268 268 250 269 250 251 269 
269 251 270 254 271 270 254 270 252 
252 270 251 252 253 254 255 256 273 
273 256 274 256 257 274 274 257 275 
257 258 275 275 258 276 258 259 276 
276 259 277 259 260 277 277 260 278 
260 261 278 278 261 279 261 262 279 
279 262 280 262 263 280 280 263 281 
263 264 281 281 264 282 264 265 282 
282 265 283 265 266 283 283 266 284 
266 267 284 284 267 285 267 268 285 
285 268 287 268 269 287 287 269 289 
272 290 289 272 289 270 270 289 269 
270 271 272 273 274 292 292 274 293 
274 275 293 293 275 294 275 276 294 
294 276 295 276 277 295 295 277 296 
277 278 296 296 278 297 278 279 297 
297 279 298 279 280 298 298 280 299 
280 281 299 299 281 300 281 282 300 
300 282 301 282 283 301 301 283 303 
283 284 303 303 284 305 286 306 305 
286 305 285 285 305 284 285 287 288 
286 285 288 287 289 291 288 287 291 
289 290 291 292 293 308 308 293 309 
293 294 309 309 294 310 294 295 310 
310 295 312 295 296 312 312 296 314 
296 297 314 314 297 316 297 298 316 
316 298 318 298 299 318 318 299 320 
299 300 320 320 300 322 302 323 322 
302 322 301 301 322 300 301 303 304 
302 301 304 303 305 307 304 303 307 
305 306 307 308 309 325 325 309 327 
311 328 327 311 327 310 310 327 309 
310 312 313 311 310 313 312 314 315 
313 312 315 314 316 317 315 314 317 
316 318 319 317 316 319 318 320 321 
319 318 321 320 322 324 321 320 324 
322 323 324 325 327 329 326 325 329 
327 328 329 
POINT_DATA 330
FIELD FieldData 5
pressure 1 330 float
0.178573 0.178573 0.178573 0.178573 0.178573 0.178573 0.178573 0.178573 0.178573 
0.178573 0.178573 0.178573 0.178573 0.178573 0.178573 0.178573 0.178573 0.178573 
0.178573 0.178573 0.178573 0.178573 0.178573 0.178573 0.178573 0.178573 0.178573 
0.178573 0.178573 0.178573 0.178573 0.178573 0.178573 0.178573 0.178573 0.178573 
0.178573 0.178573 0.178573 0.178573 0.178573 0.178573 0.178573 0.178573 0.178573 
0.178573 0.178573 0.178573 0.178573 0.178573 0.178573 0.178573 0.178573 0.178573 
0.178573 0.178573 0.178573 0.178573 0.178573 0.178573 0.178573 0.178573 0.178573 
0.178573 0.178573 0.178573 0.178573 0.178573 0.178573 0.178573 0.178573 0.178573 
0.178573 0.178573 0.178573 0.178573 0.178573 0.178573 0.178573 0.178573 0.178573 
0.178573 0.178573 0.178573 0.178573 0.178573 0.178573 0.178573 0.178573 0.178573 
0.178573 0.178573 0.178573 0.178573 0.178573 0.178573 0.178573 0.178573 0.178573 
0.178573 0.178573 0.178573 0.178573 0.178573 0.178573 0.178573 0.178573 0.178573 
0.178573 0.178573 0.178573 0.178573 0.178573 0.178573 0.178573 0.178573 0.178573 
0.178573 0.178573 0.178573 0.178573 0.178573 0.178573 0.178573 0.178573 0.178573 
0.178573 0.178573 0.178573 0.178573 0.178573 0.178573 0.178573 0.178573 0.178573 
0.178573 0.178573 0.178573 0.178573 0.178573 0.178573 0.178573 0.178573 0.178573 
0.178573 0.178573 0.178573 0.178573 0.178573 0.178573 0.178573 0.178573 0.178573 
0.178573 0.178573 0.178573 0.178573 0.178573 0.178573 0.178573 0.178573 0.178573 
0.178573 0.178573 0.178573 0.178573 0.178573 0.178573 0.178573 0.178573 0.178573 
0.178573 0.178573 0.178573 0.178573 0.178573 0.178573 0.178573 0.178573 0.178573 
0.178573 0.178573 0.178573 0.178573 0.178573 0.178573 0.178573 0.178573 0.178573 
0.178573 0.178573 0.178573 0.178573 0.178573 0.178573 0.178573 0.178573 0.178573 
0.178573 0.178573 0.178573 0.178573 0.178573 0.178573 0.178573 0.178573 0.178573 
0.178573 0.178573 0.178573 0.178573 0.178573 0.178573 0.178573 0.178573 0.178573 
0.178573 0.178573 0.178573 0.178573 0.178573 0.178573 0.178573 0.178573 0.178573 
0.178573 0.178573 0.178573 0.178573 0.178573 0.178573 0.178573 0.178573 0.178573 
0.178573 0.178573 0.178573 0.178573 0.178573 0.178573 0.178573 0.178573 0.178573 
0.178573 0.178573 0.178573 0.178573 0.178573 0.178573 0.178573 0.178573 0.178573 
0.178573 0.178573 0.178573 0.178573 0.178573 0.178573 0.178573 0.178573 0.178573 
0.178573 0.178573 0.178573 0.178573 0.178573 0.178573 0.178573 0.178573 0.178573 
0.178573 0.178573 0.178573 0.178573 0.178573 0.178573 0.178573 0.178573 0.178573 
0.178573 0.178573 0.178573 0.178573 0.178573 0.178573 0.178573 0.178573 0.178573 
0.178573 0.178573 0.178573 0.178573 0.178573 0.178573 0.178573 0.178573 0.178573 
0.178573 0.178573 0.178573 0.178573 0.178573 0.178573 0.178573 0.178573 0.178573 
0.178573 0.178573 0.178573 0.178573 0.178573 0.178573 0.178573 0.178573 0.178573 
0.178573 0.178573 0.178573 0.178573 0.178573 0.178573 0.178573 0.178573 0.178573 
0.178573 0.178573 0.178573 0.178573 0.178573 0.178573 
velocity_u 1 330 float
1 1 1 1 1 1 1 1 1 
1 1 1 1 1 1 1 1 1 
1 1 1 1 1 1 1 1 1 
1 1 1 1 1 1 1 1 1 
1 1 1 1 1 1 1 1 1 
1 1 1 1 1 1 1 1 1 
1 1 1 1 1 1 1 1 1 
1 1 1 1 1 1 1 1 1 
1 1 1 1 1 1 1 1 1 
1 1 1 1 1 1 1 1 1 
1 1 1 1 1 1 1 1 1 
1 1 1 1 1 1 1 1 1 
1 1 1 1 1 1 1 1 1 
1 1 1 1 1 1 1 1 1 
1 1 1 1 1 1 1 1 1 
1 1 1 1 1 1 1 1 1 
1 1 1 1 1 1 1 1 1 
1 1 1 1 1 1 1 1 1 
1 1 1 1 1 1 1 1 1 
1 1 1 1 1 1 1 1 1 
1 1 1 1 1 1 1 1 1 
1 1 1 1 1 1 1 1 1 
1 1 1 1 1 1 1 1 1 
1 1 1 1 1 1 1 1 1 
1 1 1 1 1 1 1 1 1 
1 1 1 1 1 1 1 1 1 
1 1 1 1 1 1 1 1 1 
1 1 1 1 1 1 1 1 1 
1 1 1 1 1 1 1 1 1 
1 1 1 1 1 1 1 1 1 
1 1 1 1 1 1 1 1 1 
1 1 1 1 1 1 1 1 1 
1 1 1 1 1 1 1 1 1 
1 1 1 1 1 1 1 1 1 
1 1 1 1 1 1 1 1 1 
1 1 1 1 1 1 1 1 1 
1 1 1 1 1 1 
velocity_v 1 330 float
-8.86999e-10 -8.7487e-10 -1.0373e-09 -1.00419e-09 -7.56026e-10 -7.53995e-10 -5.93032e-10 -5.83021e-10 -6.53038e-10 
-6.69739e-10 -7.03851e-10 -6.31481e-10 -5.53297e-10 -5.81375e-10 -5.87179e-10 -4.9588e-10 -3.02994e-10 -2.71282e-10 
-2.71526e-10 -1.45427e-10 -5.09446e-11 0 -8.636e-10 -8.02635e-10 -7.86425e-10 -7.99853e-10 -9.04539e-10 
-9.01452e-10 -8.45822e-10 -8.45523e-10 -8.88209e-10 -8.25482e-10 -7.91218e-10 -6.98546e-10 -6.24606e-10 -6.17433e-10 
-6.33407e-10 -5.51458e-10 -4.13532e-10 -3.46855e-10 -2.72203e-10 -1.29928e-10 -4.63676e-11 0 -8.80423e-10 
-6.56878e-10 -7.99922e-10 -8.67968e-10 -8.53781e-10 -8.56154e-10 -9.16584e-10 -8.98615e-10 -8.7893e-10 -7.82671e-10 
-7.38243e-10 -7.01357e-10 -7.16483e-10 -6.51188e-10 -6.16425e-10 -5.06152e-10 -3.28384e-10 -2.78302e-10 -1.68392e-10 
-1.17102e-10 -4.55403e-11 0 -7.25888e-10 -7.31951e-10 -7.82842e-10 -8.40608e-10 -8.33113e-10 -8.80998e-10 
-8.566e-10 -8.81037e-10 -8.44e-10 -8.1071e-10 -7.29584e-10 -7.5534e-10 -7.35277e-10 -6.32563e-10 -5.53058e-10 
-4.09295e-10 -3.05835e-10 -1.66405e-10 -1.60512e-10 -1.24838e-10 -2.68211e-11 0 -5.22535e-10 -7.48636e-10 
-7.9275e-10 -7.38646e-10 -8.83978e-10 -8.2913e-10 -8.54464e-10 -8.60842e-10 -8.56163e-10 -8.2078e-10 -8.87032e-10 
-8.37474e-10 -7.20661e-10 -6.11698e-10 -5.0365e-10 -4.39123e-10 -2.4057e-10 -1.97663e-10 -1.73703e-10 -1.04093e-10 
-1.27252e-11 0 0 -6.72507e-10 -8.38034e-10 -8.2429e-10 -8.11689e-10 -7.55295e-10 -8.89564e-10 
-8.40499e-10 -7.65389e-10 -7.76952e-10 -9.6595e-10 -9.33017e-10 -8.48343e-10 -7.39339e-10 -5.87989e-10 -5.36595e-10 
-3.66399e-10 -2.56377e-10 -2.43615e-10 -1.49681e-10 -9.87711e-11 0 -7.15044e-10 -8.47487e-10 -9.20081e-10 
-7.59368e-10 -7.11152e-10 -7.20018e-10 -7.50764e-10 -6.67252e-10 -7.22857e-10 -7.59543e-10 -9.02632e-10 -7.90375e-10 
-5.8978e-10 -5.60608e-10 -4.27159e-10 -3.44936e-10 -2.95783e-10 -2.06641e-10 -1.57787e-10 -6.26568e-11 0 
-9.52001e-10 -9.54312e-10 -8.38053e-10 -8.13166e-10 -7.86315e-10 -7.35484e-10 -7.04057e-10 -8.11583e-10 -7.45884e-10 
-6.87926e-10 -6.52894e-10 -6.79177e-10 -6.04304e-10 -4.33699e-10 -3.4944e-10 -3.65794e-10 -2.32543e-10 -2.15727e-10 
-1.28332e-10 -1.62329e-11 0 0 -1.0946e-09 -9.72737e-10 -8.09483e-10 -8.86665e-10 -8.0866e-10 
-6.98127e-10 -7.68364e-10 -7.56437e-10 -6.54093e-10 -4.70299e-10 -3.57649e-10 -4.55538e-10 -4.66607e-10 -3.99422e-10 
-3.6504e-10 -2.68259e-10 -2.3813e-10 -1.71549e-10 -6.01715e-11 0 -1.04431e-09 -7.66631e-10 -6.92482e-10 
-7.82341e-10 -6.8411e-10 -6.20085e-10 -6.36809e-10 -5.72467e-10 -4.67302e-10 -2.8201e-10 -1.99198e-10 -2.58789e-10 
-2.47276e-10 -3.86651e-10 -2.30414e-10 -1.91114e-10 -1.72559e-10 -5.773e-11 -1.54028e-11 0 0 
-8.43268e-10 -6.66188e-10 -6.13712e-10 -5.55778e-10 -6.28981e-10 -6.14188e-10 -6.41394e-10 -5.39028e-10 -2.58716e-10 
-3.27319e-10 -2.48504e-10 -2.17423e-10 -3.40732e-10 -2.33775e-10 -2.34755e-10 -1.81546e-10 -7.36165e-11 -3.13253e-11 
0 0 -8.73914e-10 -5.67935e-10 -6.02562e-10 -4.64472e-10 -4.74828e-10 -6.0572e-10 -5.99115e-10 
-4.47282e-10 -4.97539e-10 -4.75674e-10 -4.15267e-10 -4.70195e-10 -3.1529e-10 -2.95661e-10 -2.56733e-10 -1.30513e-10 
-7.06095e-11 0 0 -9.01769e-10 -5.57546e-10 -4.5984e-10 -4.61163e-10 -4.26528e-10 -3.78949e-10 
-1.98063e-10 -2.25265e-10 -3.4543e-10 -3.03986e-10 -3.28568e-10 -2.44032e-10 -1.90222e-10 -1.39725e-10 -7.24729e-11 
-3.14639e-11 0 0 -1.04326e-09 -7.64539e-10 -6.86732e-10 -6.8766e-10 -5.94928e-10 -2.75179e-10 
-3.24494e-10 -3.76481e-10 -3.36605e-10 -3.63684e-10 -2.51135e-10 -1.85145e-10 -1.58179e-10 0 -5.92283e-11 
0 -1.01007e-11 0 0 -8.86609e-10 -4.84604e-10 -5.16923e-10 -5.05699e-10 -2.68311e-10 
-2.82051e-10 -2.79181e-10 -2.39418e-10 -1.4338e-10 -9.83964e-11 0 -9.7325e-11 0 -5.09696e-11 
0 0 -6.0997e-10 -4.00317e-10 -3.27166e-10 0 -2.45301e-10 0 -1.94236e-10 
0 -2.13924e-10 0 -1.38834e-10 0 -6.22323e-11 0 -1.92685e-11 0 
0 -1.02737e-10 0 -3.93017e-11 0 0 
velocity_w 1 330 float
1.99786e-08 6.54345e-09 2.62513e-09 1.41934e-08 9.21345e-09 1.212e-08 4.92198e-09 -4.59955e-09 -7.03212e-09 
7.61486e-09 5.0174e-09 -1.91021e-09 -1.64065e-08 -1.02819e-08 -1.45296e-08 -1.96909e-08 -1.23245e-08 4.99921e-10 
-3.97747e-10 -2.7559e-09 7.87593e-10 0 -6.18273e-09 1.78161e-09 -7.56985e-09 3.63362e-09 1.3396e-08 
1.53362e-08 9.37255e-10 -2.19135e-09 1.51831e-09 5.1394e-09 6.0476e-09 1.21375e-09 -8.56911e-09 -1.02552e-08 
-8.82873e-09 -1.33529e-08 -1.31307e-08 -4.3467e-09 -3.04777e-09 4.83699e-10 5.974e-10 0 -7.00628e-09 
3.12509e-09 2.37423e-09 -7.65947e-09 6.89757e-10 3.98343e-09 8.15942e-09 3.80389e-09 -3.0501e-09 -4.85195e-11 
-4.81682e-09 -8.5632e-09 -3.90801e-10 5.69075e-10 -2.15126e-09 -7.30221e-09 -7.2028e-09 -5.69182e-09 -5.30601e-09 
1.07515e-09 1.8749e-10 0 1.07715e-09 -4.75972e-09 3.65207e-09 8.15843e-09 -6.43805e-09 -3.60458e-09 
1.52634e-08 1.30346e-08 6.34512e-09 -2.53064e-09 -1.52798e-08 -1.06886e-08 -4.89794e-09 -8.25493e-10 2.92349e-09 
-9.42869e-09 -7.94757e-09 -5.34939e-09 -4.51574e-09 4.90725e-10 2.04831e-10 0 -3.394e-09 8.43854e-09 
7.07931e-09 2.27893e-08 9.42365e-09 7.90707e-09 1.14293e-09 4.32409e-09 1.92317e-09 -5.31604e-09 -1.49843e-08 
-1.32877e-08 9.70792e-10 -4.26372e-09 1.77595e-09 -4.46849e-09 -7.39675e-09 -8.66915e-09 -1.97441e-09 -1.59773e-09 
4.33108e-11 0 0 -4.3914e-09 1.80314e-08 1.19269e-08 9.18121e-09 6.88124e-09 2.31476e-09 
-6.08709e-09 8.85136e-10 -6.90737e-09 -9.27167e-09 -3.17252e-09 1.15928e-09 -5.40802e-09 -7.57815e-09 -2.76474e-09 
1.89074e-10 -1.90952e-09 -4.10848e-09 -1.63525e-09 -1.38563e-09 0 -8.57636e-09 1.4888e-09 -1.23923e-09 
-3.6372e-09 5.61859e-09 1.44443e-10 2.4001e-10 -8.7905e-09 -6.11704e-09 -5.37365e-09 -1.34373e-09 6.71859e-11 
-6.31164e-09 -4.52664e-10 -9.05908e-09 5.51401e-10 -1.54123e-09 5.16746e-10 1.20339e-09 -1.00614e-09 0 
-3.91332e-09 -8.70074e-09 -5.59397e-09 -1.18134e-08 -8.99078e-09 -6.15026e-09 -9.80836e-09 -1.09624e-08 -4.86764e-09 
-3.85572e-09 -1.28019e-09 -4.81287e-09 -2.21101e-11 -5.9215e-10 -3.4242e-09 4.83887e-09 4.13233e-09 3.15402e-10 
7.3829e-10 -4.22295e-10 0 0 -3.16179e-08 -1.77311e-08 -2.32131e-08 -2.9322e-08 -2.25537e-08 
-1.90314e-08 -1.39731e-08 -3.74556e-09 -1.65995e-10 8.68748e-10 6.71389e-10 -1.97968e-09 -5.89964e-09 2.57929e-09 
3.64698e-09 3.47123e-09 4.48015e-09 3.6605e-10 -1.55681e-09 0 -2.09075e-08 -1.17377e-08 -1.14958e-08 
-1.00314e-08 -1.09451e-08 -1.26109e-08 -8.68266e-09 -6.96287e-09 -2.44249e-09 1.02255e-09 8.21912e-09 2.72393e-09 
3.71708e-09 7.3895e-09 8.78006e-09 3.15639e-09 3.68213e-09 -8.22641e-10 9.18707e-11 0 0 
8.02288e-09 6.11887e-09 8.68192e-09 1.36958e-08 1.20059e-08 9.80374e-09 8.98926e-09 1.20127e-08 4.97488e-09 
9.29526e-09 6.45888e-09 7.98375e-09 7.07625e-09 5.95119e-09 2.4935e-09 7.09846e-10 5.49002e-10 4.75733e-10 
0 0 4.09568e-09 5.45624e-09 1.02562e-08 6.71197e-09 8.29063e-09 1.02132e-08 8.7251e-09 
7.56884e-09 6.7542e-09 6.98541e-09 4.47628e-09 4.94157e-09 1.75862e-09 3.07023e-10 -8.37616e-10 1.52281e-09 
6.23603e-11 0 0 1.20764e-08 9.28151e-09 1.1724e-08 8.54328e-09 8.28336e-09 7.98235e-09 
6.7113e-09 3.63155e-09 3.56931e-09 -1.45595e-09 7.40938e-10 8.54668e-10 1.6584e-09 -4.52414e-10 1.35083e-09 
7.9792e-10 0 0 -2.40222e-09 9.33176e-10 -1.85032e-09 -2.58129e-09 -7.54365e-10 -1.58275e-09 
-1.14968e-09 -2.29351e-09 -1.23653e-09 1.76408e-10 -6.43181e-11 1.3396e-09 1.23219e-09 0 7.76284e-10 
0 8.93166e-11 0 0 -8.28774e-09 -2.57209e-09 -2.1266e-09 -1.18856e-09 -9.36526e-10 
-2.3667e-10 4.89893e-11 5.97031e-10 4.52478e-10 2.50971e-10 0 3.52608e-10 0 -2.12135e-10 
0 0 -1.05142e-10 5.14849e-10 6.07028e-10 0 6.00749e-10 0 2.36497e-10 
0 2.70946e-10 0 8.18339e-11 0 -2.13633e-11 0 -3.73999e-11 0 
0 3.55355e-10 0 -1.02162e-10 0 0 
temperature 1 330 float
0.178573 0.178573 0.178573 0.178573 0.178573 0.178573 0.178573 0.178573 0.178573 
0.178573 0.178573 0.178573 0.178573 0.178573 0.178573 0.178573 0.178573 0.178573 