# vtk DataFile Version 5.1
vtk output
ASCII
DATASET POLYDATA
POINTS 4389 float
0 2.85 -0.5 0.00160117 2.8484 -0.5 0.00332708 2.84667 -0.5 
0.00518729 2.84481 -0.5 0.00719207 2.84281 -0.5 0.00935247 2.84065 -0.5 
0.0116803 2.83832 -0.5 0.0141883 2.83581 -0.5 0.01689 2.83311 -0.5 
0.0197999 2.8302 -0.5 0.0229339 2.82707 -0.5 0.0263083 2.82369 -0.5 
0.0299413 2.82006 -0.5 0.0338515 2.81615 -0.5 0.0380596 2.81194 -0.5 
0.0425868 2.80741 -0.5 0.0474562 2.80254 -0.5 0.0526922 2.79731 -0.5 
0.0583206 2.79168 -0.5 0.0643687 2.78563 -0.5 0.0708653 2.77913 -0.5 
0.0778408 2.77216 -0.5 0.085327 2.76467 -0.5 0.0933571 2.75664 -0.5 
0.101966 2.74803 -0.5 0.11119 2.73881 -0.5 0.121066 2.72893 -0.5 
0.131632 2.71837 -0.5 0.142927 2.70707 -0.5 0.154992 2.69501 -0.5 
0.167865 2.68214 -0.5 0.181586 2.66841 -0.5 0.196195 2.65381 -0.5 
0.211729 2.63827 -0.5 0.228223 2.62178 -0.5 0.24571 2.60429 -0.5 
0.264219 2.58578 -0.5 0.283776 2.56622 -0.5 0.303805 2.54619 -0.5 
0.304401 2.5456 -0.5 0.326108 2.52389 -0.5 0.348903 2.5011 -0.5 
0.37278 2.47722 -0.5 0.397732 2.45227 -0.5 0.423732 2.42627 -0.5 
0.450747 2.39925 -0.5 0.478732 2.37127 -0.5 0.507627 2.34237 -0.5 
0.537363 2.31264 -0.5 0.567856 2.28214 -0.5 0.590683 2.25932 -0.5 
0.599015 2.25099 -0.5 0.630739 2.21926 -0.5 0.662905 2.18709 -0.5 
0.695386 2.15461 -0.5 0.728054 2.12195 -0.5 0.760773 2.08923 -0.5 
0.790454 2.05955 -0.5 0.793406 2.05659 -0.5 0.825835 2.02417 -0.5 
0.857907 1.99209 -0.5 0.889496 1.9605 -0.5 0.92048 1.92952 -0.5 
0.935906 1.91409 -0.5 0.950758 1.89924 -0.5 0.980228 1.86977 -0.5 
1.0088 1.8412 -0.5 1.03638 1.81362 -0.5 1.04508 1.80492 -0.5 
1.06295 1.78705 -0.5 1.08843 1.76157 -0.5 1.11279 1.73721 -0.5 
1.12916 1.72084 -0.5 1.13602 1.71398 -0.5 1.1581 1.6919 -0.5 
1.17904 1.67096 -0.5 1.19558 1.65442 -0.5 1.19884 1.65116 -0.5 
1.21753 1.63247 -0.5 1.23512 1.61488 -0.5 1.24964 1.60036 -0.5 
1.25167 1.59833 -0.5 1.2672 1.5828 -0.5 1.28174 1.56826 -0.5 
1.29528 1.55472 -0.5 1.29535 1.55465 -0.5 1.30807 1.54193 -0.5 
1.31994 1.53006 -0.5 1.33101 1.51899 -0.5 1.33564 1.51436 -0.5 
1.34132 1.50868 -0.5 1.35093 1.49907 -0.5 1.35987 1.49013 -0.5 
1.36818 1.48182 -0.5 1.37334 1.47666 -0.5 0 2.847 -0.497 
0.00160318 2.8454 -0.497 0.00333123 2.84367 -0.497 0.00519374 2.84181 -0.497 
0.00720099 2.8398 -0.497 0.00936405 2.83764 -0.497 0.0116947 2.83531 -0.497 
0.0142057 2.83279 -0.497 0.0169107 2.83009 -0.497 0.0198241 2.82718 -0.497 
0.0229618 2.82404 -0.497 0.0263402 2.82066 -0.497 0.0299774 2.81702 -0.497 
0.0338922 2.81311 -0.497 0.038105 2.8089 -0.497 0.0426374 2.80436 -0.497 
0.0475122 2.79949 -0.497 0.0527541 2.79425 -0.497 0.0583887 2.78861 -0.497 
0.0644434 2.78256 -0.497 0.0709469 2.77605 -0.497 0.0779298 2.76907 -0.497 
0.0854238 2.76158 -0.497 0.0934621 2.75354 -0.497 0.10208 2.74492 -0.497 
0.111313 2.73569 -0.497 0.121198 2.7258 -0.497 0.131774 2.71523 -0.497 
0.14308 2.70392 -0.497 0.155156 2.69184 -0.497 0.16804 2.67896 -0.497 
0.181773 2.66523 -0.497 0.196394 2.65061 -0.497 0.211941 2.63506 -0.497 
0.228447 2.61855 -0.497 0.245948 2.60105 -0.497 0.264471 2.58253 -0.497 
0.284041 2.56296 -0.497 0.301172 2.54583 -0.497 0.30468 2.54232 -0.497 
0.326401 2.5206 -0.497 0.349209 2.49779 -0.497 0.373101 2.4739 -0.497 
0.398065 2.44894 -0.497 0.424079 2.42292 -0.497 0.451106 2.39589 -0.497 
0.479102 2.3679 -0.497 0.508009 2.33899 -0.497 0.537754 2.30925 -0.497 
0.568256 2.27874 -0.497 0.588195 2.25881 -0.497 0.599424 2.24758 -0.497 
0.631155 2.21584 -0.497 0.663327 2.18367 -0.497 0.695812 2.15119 -0.497 
0.728482 2.11852 -0.497 0.761203 2.0858 -0.497 0.788053 2.05895 -0.497 
0.793836 2.05316 -0.497 0.826263 2.02074 -0.497 0.858332 1.98867 -0.497 
0.889915 1.95708 -0.497 0.920894 1.92611 -0.497 0.933559 1.91344 -0.497 
0.951165 1.89583 -0.497 0.980626 1.86637 -0.497 1.00918 1.83782 -0.497 
1.03676 1.81024 -0.497 1.04277 1.80423 -0.497 1.06331 1.78369 -0.497 
1.08878 1.75822 -0.497 1.11313 1.73387 -0.497 1.12687 1.72013 -0.497 
1.13635 1.71065 -0.497 1.15841 1.68859 -0.497 1.17933 1.66767 -0.497 
1.19331 1.65369 -0.497 1.19912 1.64788 -0.497 1.21779 1.62921 -0.497 
1.23537 1.61163 -0.497 1.24738 1.59962 -0.497 1.25191 1.59509 -0.497 
1.26742 1.57958 -0.497 1.28194 1.56506 -0.497 1.29303 1.55397 -0.497 
1.29554 1.55146 -0.497 1.30825 1.53875 -0.497 1.3201 1.5269 -0.497 
1.33116 1.51584 -0.497 1.3334 1.5136 -0.497 1.3313 1.51288 -0.49418 
1.34146 1.50554 -0.497 1.35106 1.49594 -0.497 1.35999 1.48701 -0.497 
1.36828 1.47872 -0.497 1.37111 1.47589 -0.497 0 2.84355 -0.493548 
0.00160548 2.84194 -0.493548 0.00333601 2.84021 -0.493548 0.00520117 2.83835 -0.493548 
0.00721127 2.83634 -0.493548 0.00937737 2.83417 -0.493548 0.0117112 2.83184 -0.493548 
0.0142258 2.82932 -0.493548 0.0169345 2.82661 -0.493548 0.0198519 2.8237 -0.493548 
0.0229938 2.82055 -0.493548 0.0263769 2.81717 -0.493548 0.0300189 2.81353 -0.493548 
0.0339389 2.80961 -0.493548 0.0381573 2.80539 -0.493548 0.0426956 2.80085 -0.493548 
0.0475767 2.79597 -0.493548 0.0528253 2.79072 -0.493548 0.058467 2.78508 -0.493548 
0.0645292 2.77902 -0.493548 0.0710408 2.77251 -0.493548 0.0780322 2.76552 -0.493548 
0.0855351 2.75801 -0.493548 0.0935829 2.74997 -0.493548 0.102211 2.74134 -0.493548 
0.111454 2.73209 -0.493548 0.121351 2.7222 -0.493548 0.131938 2.71161 -0.493548 
0.143256 2.70029 -0.493548 0.155344 2.6882 -0.493548 0.168241 2.67531 -0.493548 
0.181989 2.66156 -0.493548 0.196623 2.64692 -0.493548 0.212185 2.63136 -0.493548 
0.228706 2.61484 -0.493548 0.246222 2.59733 -0.493548 0.26476 2.57879 -0.493548 
0.284346 2.5592 -0.493548 0.298142 2.54541 -0.493548 0.305001 2.53855 -0.493548 
0.326738 2.51681 -0.493548 0.349562 2.49399 -0.493548 0.373469 2.47008 -0.493548 
0.398448 2.4451 -0.493548 0.424477 2.41907 -0.493548 0.451518 2.39203 -0.493548 
0.479528 2.36402 -0.493548 0.508447 2.3351 -0.493548 0.538205 2.30534 -0.493548 
0.568717 2.27483 -0.493548 0.585332 2.25822 -0.493548 0.599896 2.24365 -0.493548 
0.631634 2.21191 -0.493548 0.663812 2.17974 -0.493548 0.696302 2.14725 -0.493548 
0.728975 2.11457 -0.493548 0.761697 2.08185 -0.493548 0.785289 2.05826 -0.493548 
0.794332 2.04922 -0.493548 0.826757 2.01679 -0.493548 0.858821 1.98473 -0.493548 
0.890399 1.95315 -0.493548 0.921369 1.92218 -0.493548 0.930857 1.91269 -0.493548 
0.951634 1.89191 -0.493548 0.981084 1.86246 -0.493548 1.00963 1.83392 -0.493548 
1.03719 1.80636 -0.493548 1.04011 1.80344 -0.493548 1.0376 1.80269 -0.49029 
1.06373 1.77982 -0.493548 1.08918 1.75436 -0.493548 1.11352 1.73003 -0.493548 
1.12424 1.71931 -0.493548 1.13672 1.70683 -0.493548 1.15876 1.68478 -0.493548 
1.17967 1.66388 -0.493548 1.1907 1.65284 -0.493548 1.19944 1.64411 -0.493548 
1.2181 1.62545 -0.493548 1.23566 1.60789 -0.493548 1.24478 1.59876 -0.493548 
1.25218 1.59137 -0.493548 1.26767 1.57588 -0.493548 1.28218 1.56137 -0.493548 
1.29045 1.5531 -0.493548 1.29576 1.54779 -0.493548 1.30845 1.5351 -0.493548 
1.32029 1.52326 -0.493548 1.33083 1.51272 -0.493548 1.33133 1.51222 -0.493548 
1.34162 1.50192 -0.493548 1.3512 1.49234 -0.493548 1.36012 1.48343 -0.493548 
1.3684 1.47514 -0.493548 1.36855 1.475 -0.493548 1.36841 1.47495 -0.49336 
0 2.83958 -0.489579 0.00160813 2.83797 -0.489579 0.0033415 2.83624 -0.489579 
0.00520972 2.83437 -0.489579 0.00722308 2.83236 -0.489579 0.00939268 2.83019 -0.489579 
0.0117303 2.82785 -0.489579 0.0142489 2.82533 -0.489579 0.0169619 2.82262 -0.489579 
0.0198839 2.81969 -0.489579 0.0230307 2.81655 -0.489579 0.026419 2.81316 -0.489579 
0.0300667 2.80951 -0.489579 0.0339927 2.80559 -0.489579 0.0382175 2.80136 -0.489579 
0.0427625 2.79682 -0.489579 0.0476509 2.79193 -0.489579 0.0529072 2.78667 -0.489579 
0.0585571 2.78102 -0.489579 0.064628 2.77495 -0.489579 0.0711488 2.76843 -0.489579 
0.0781499 2.76143 -0.489579 0.0856631 2.75392 -0.489579 0.0937218 2.74586 -0.489579 
0.102361 2.73722 -0.489579 0.111616 2.72796 -0.489579 0.121526 2.71805 -0.489579 
0.132126 2.70745 -0.489579 0.143458 2.69612 -0.489579 0.155561 2.68402 -0.489579 
0.168473 2.67111 -0.489579 0.182236 2.65734 -0.489579 0.196887 2.64269 -0.489579 
0.212465 2.62711 -0.489579 0.229003 2.61058 -0.489579 0.246537 2.59304 -0.489579 
0.265092 2.57449 -0.489579 0.284697 2.55488 -0.489579 0.294658 2.54492 -0.489579 
0.30537 2.53421 -0.489579 0.327125 2.51245 -0.489579 0.349967 2.48961 -0.489579 
0.373892 2.46569 -0.489579 0.398889 2.44069 -0.489579 0.424935 2.41464 -0.489579 
0.451993 2.38759 -0.489579 0.480018 2.35956 -0.489579 0.508951 2.33063 -0.489579 
0.538722 2.30086 -0.489579 0.569247 2.27033 -0.489579 0.58204 2.25754 -0.489579 
0.600437 2.23914 -0.489579 0.632185 2.20739 -0.489579 0.66437 2.17521 -0.489579 
0.696866 2.14271 -0.489579 0.729542 2.11004 -0.489579 0.762265 2.07731 -0.489579 
0.782112 2.05747 -0.489579 0.794902 2.04468 -0.489579 0.827324 2.01226 -0.489579 
0.859383 1.9802 -0.489579 0.890954 1.94862 -0.489579 0.921916 1.91766 -0.489579 
0.927751 1.91183 -0.489579 0.952172 1.88741 -0.489579 0.98161 1.85797 -0.489579 
1.01014 1.82944 -0.489579 1.03705 1.80253 -0.489579 1.03769 1.80189 -0.489579 
1.06421 1.77537 -0.489579 1.08965 1.74993 -0.489579 1.11397 1.72561 -0.489579 
1.12122 1.71836 -0.489579 1.13715 1.70243 -0.489579 1.15917 1.6804 -0.489579 
1.18006 1.65952 -0.489579 1.1877 1.65188 -0.489579 1.19981 1.63977 -0.489579 
1.21845 1.62113 -0.489579 1.23599 1.60359 -0.489579 1.2418 1.59778 -0.489579 
1.25249 1.58709 -0.489579 1.26796 1.57162 -0.489579 1.28245 1.55713 -0.489579 
1.28748 1.5521 -0.489579 1.29601 1.54357 -0.489579 1.30869 1.53089 -0.489579 
1.32051 1.51907 -0.489579 1.32787 1.51171 -0.489579 1.33153 1.50805 -0.489579 
1.34181 1.49777 -0.489579 1.35137 1.48821 -0.489579 1.36027 1.4793 -0.489579 
1.36561 1.47397 -0.489579 0 2.83502 -0.485022 0.00161118 2.83341 -0.485022 
0.00334781 2.83167 -0.485022 0.00521953 2.8298 -0.485022 0.00723664 2.82779 -0.485022 
0.00941026 2.82561 -0.485022 0.0117522 2.82327 -0.485022 0.0142754 2.82075 -0.485022 
0.0169933 2.81803 -0.485022 0.0199206 2.8151 -0.485022 0.0230731 2.81195 -0.485022 
[...]
POINT_DATA 4389
FIELD FieldData 5
pressure 1 4389 float
0.178573 0.178573 0.178573 0.178573 0.178573 0.178573 0.178573 0.178573 0.178573 
0.178573 0.178573 0.178573 0.178573 0.178573 0.178573 0.178573 0.178573 0.178573 
0.178573 0.178573 0.178573 0.178573 0.178573 0.178573 0.178573 0.178573 0.178573 
0.178573 0.178573 0.178573 0.178573 0.178573 0.178573 0.178573 0.178573 0.178573 
0.178573 0.178573 0.178573 0.178573 0.178573 0.178573 0.178573 0.178573 0.178573 
0.178573 0.178573 0.178573 0.178573 0.178573 0.178573 0.178573 0.178573 0.178573 
0.178573 0.178573 0.178573 0.178573 0.178573 0.178573 0.178573 0.178573 0.178573 
0.178573 0.178573 0.178573 0.178573 0.178573 0.178573 0.178573 0.178573 0.178573 
0.178573 0.178573 0.178573 0.178573 0.178573 0.178573 0.178573 0.178573 0.178573 
0.178573 0.178573 0.178573 0.178573 0.178573 0.178573 0.178573 0.178573 0.178573 
0.178573 0.178573 0.178573 0.178573 0.178573 0.178573 0.178573 0.178573 0.178573 
0.178573 0.178573 0.178573 0.178573 0.178573 0.178573 0.178573 0.178573 0.178573 
0.178573 0.178573 0.178573 0.178573 0.178573 0.178573 0.178573 0.178573 0.178573 
0.178573 0.178573 0.178573 0.178573 0.178573 0.178573 0.178573 0.178573 0.178573 
0.178573 0.178573 0.178573 0.178573 0.178573 0.178573 0.178573 0.178573 0.178573 
0.178573 0.178573 0.178573 0.178573 0.178573 0.178573 0.178573 0.178573 0.178573 
0.178573 0.178573 0.178573 0.178573 0.178573 0.178573 0.178573 0.178573 0.178573 
0.178573 0.178573 0.178573 0.178573 0.178573 0.178573 0.178573 0.178573 0.178573 
0.178573 0.178573 0.178573 0.178573 0.178573 0.178573 0.178573 0.178573 0.178573 
0.178573 0.178573 0.178573 0.178573 0.178573 0.178573 0.178573 0.178573 0.178573 
0.178573 0.178573 0.178573 0.178573 0.178573 0.178573 0.178573 0.178573 0.178573 
0.178573 0.178573 0.178573 0.178573 0.178573 0.178573 0.178573 0.178573 0.178573 
0.178573 0.178573 0.178573 0.178573 0.178573 0.178573 0.178573 0.178573 0.178573 
0.178573 0.178573 0.178573 0.178573 0.178573 0.178573 0.178573 0.178573 0.178573 
0.178573 0.178573 0.178573 0.178573 0.178573 0.178573 0.178573 0.178573 0.178573 
0.178573 0.178573 0.178573 0.178573 0.178573 0.178573 0.178573 0.178573 0.178573 
0.178573 0.178573 0.178573 0.178573 0.178573 0.178573 0.178573 0.178573 0.178573 
0.178573 0.178573 0.178573 0.178573 0.178573 0.178573 0.178573 0.178573 0.178573 
0.178573 0.178573 0.178573 0.178573 0.178573 0.178573 0.178573 0.178573 0.178573 
0.178573 0.178573 0.178573 0.178573 0.178573 0.178573 0.178573 0.178573 0.178573 
0.178573 0.178573 0.178573 0.178573 0.178573 0.178573 0.178573 0.178573 0.178573 
0.178573 0.178573 0.178573 0.178573 0.178573 0.178573 0.178573 0.178573 0.178573 
0.178573 0.178573 0.178573 0.178573 0.178573 0.178573 0.178573 0.178573 0.178573 
0.178573 0.178573 0.178573 0.178573 0.178573 0.178573 0.178573 0.178573 0.178573 
0.178573 0.178573 0.178573 0.178573 0.178573 0.178573 0.178573 0.178573 0.178573 
0.178573 0.178573 0.178573 0.178573 0.178573 0.178573 0.178573 0.178573 0.178573 
0.178573 0.178573 0.178573 0.178573 0.178573 0.178573 0.178573 0.178573 0.178573 
0.178573 0.178573 0.178573 0.178573 0.178573 0.178573 0.178573 0.178573 0.178573 
0.178573 0.178573 0.178573 0.178573 0.178573 0.178573 0.178573 0.178573 0.178573 
0.178573 0.178573 0.178573 0.178573 0.178573 0.178573 0.178573 0.178573 0.178573 
0.178573 0.178573 0.178573 0.178573 0.178573 0.178573 0.178573 0.178573 0.178573 
0.178573 0.178573 0.178573 0.178573 0.178573 0.178573 0.178573 0.178573 0.178573 
0.178573 0.178573 0.178573 0.178573 0.178573 0.178573 0.178573 0.178573 0.178573 
0.178573 0.178573 0.178573 0.178573 0.178573 0.178573 0.178573 0.178573 0.178573 
0.178573 0.178573 0.178573 0.178573 0.178573 0.178573 0.178573 0.178573 0.178573 
0.178573 0.178573 0.178573 0.178573 0.178573 0.178573 0.178573 0.178573 0.178573 
0.178573 0.178573 0.178573 0.178573 0.178573 0.178573 0.178573 0.178573 0.178573 
0.178573 0.178573 0.178573 0.178573 0.178573 0.178573 0.178573 0.178573 0.178573 
0.178573 0.178573 0.178573 0.178573 0.178573 0.178573 0.178573 0.178573 0.178573 
0.178573 0.178573 0.178573 0.178573 0.178573 0.178573 0.178573 0.178573 0.178573 
0.178573 0.178573 0.178573 0.178573 0.178573 0.178573 0.178573 0.178573 0.178573 
0.178573 0.178573 0.178573 0.178573 0.178573 0.178573 0.178573 0.178573 0.178573 
0.178573 0.178573 0.178573 0.178573 0.178573 0.178573 0.178573 0.178573 0.178573 
0.178573 0.178573 0.178573 0.178573 0.178573 0.178573 0.178573 0.178573 0.178573 
0.178573 0.178573 0.178573 0.178573 0.178573 0.178573 0.178573 0.178573 0.178573 
0.178573 0.178573 0.178573 0.178573 0.178573 0.178573 0.178573 0.178573 0.178573 
0.178573 0.178573 0.178573 0.178573 0.178573 0.178573 0.178573 0.178573 0.178573 
0.178573 0.178573 0.178573 0.178573 0.178573 0.178573 0.178573 0.178573 0.178573 
0.178573 0.178573 0.178573 0.178573 0.178573 0.178573 0.178573 0.178573 0.178573 
0.178573 0.178573 0.178573 0.178573 0.178573 0.178573 0.178573 0.178573 0.178573 
0.178573 0.178573 0.178573 0.178573 0.178573 0.178573 0.178573 0.178573 0.178573 
0.178573 0.178573 0.178573 0.178573 0.178573 0.178573 0.178573 0.178573 0.178573 
0.178573 0.178573 0.178573 0.178573 0.178573 0.178573 0.178573 0.178573 0.178573 
0.178573 0.178573 0.178573 0.178573 0.178573 0.178573 0.178573 0.178573 0.178573 
0.178573 0.178573 0.178573 0.178573 0.178573 0.178573 0.178573 0.178573 0.178573 
0.178573 0.178573 0.178573 0.178573 0.178573 0.178573 0.178573 0.178573 0.178573 
0.178573 0.178573 0.178573 0.178573 0.178573 0.178573 0.178573 0.178573 0.178573 
0.178573 0.178573 0.178573 0.178573 0.178573 0.178573 0.178573 0.178573 0.178573 
0.178573 0.178573 0.178573 0.178573 0.178573 0.178573 0.178573 0.178573 0.178573 
0.178573 0.178573 0.178573 0.178573 0.178573 0.178573 0.178573 0.178573 0.178573 
0.178573 0.178573 0.178573 0.178573 0.178573 0.178573 0.178573 0.178573 0.178573 
0.178573 0.178573 0.178573 0.178573 0.178573 0.178573 0.178573 0.178573 0.178573 
0.178573 0.178573 0.178573 0.178573 0.178573 0.178573 0.178573 0.178573 0.178573 
0.178573 0.178573 0.178573 0.178573 0.178573 0.178573 0.178573 0.178573 0.178573 
0.178573 0.178573 0.178573 0.178573 0.178573 0.178573 0.178573 0.178573 0.178573 
0.178573 0.178573 0.178573 0.178573 0.178573 0.178573 0.178573 0.178573 0.178573 
0.178573 0.178573 0.178573 0.178573 0.178573 0.178573 0.178573 0.178573 0.178573 
0.178573 0.178573 0.178573 0.178573 0.178573 0.178573 0.178573 0.178573 0.178573 
0.178573 0.178573 0.178573 0.178573 0.178573 0.178573 0.178573 0.178573 0.178573 
0.178573 0.178573 0.178573 0.178573 0.178573 0.178573 0.178573 0.178573 0.178573 
0.178573 0.178573 0.178573 0.178573 0.178573 0.178573 0.178573 0.178573 0.178573 
0.178573 0.178573 0.178573 0.178573 0.178573 0.178573 0.178573 0.178573 0.178573 
0.178573 0.178573 0.178573 0.178573 0.178573 0.178573 0.178573 0.178573 0.178573 
0.178573 0.178573 0.178573 0.178573 0.178573 0.178573 0.178573 0.178573 0.178573 
0.178573 0.178573 0.178573 0.178573 0.178573 0.178573 0.178573 0.178573 0.178573 
0.178573 0.178573 0.178573 0.178573 0.178573 0.178573 0.178573 0.178573 0.178573 
0.178573 0.178573 0.178573 0.178573 0.178573 0.178573 0.178573 0.178573 0.178573 
0.178573 0.178573 0.178573 0.178573 0.178573 0.178573 0.178573 0.178573 0.178573 
0.178573 0.178573 0.178573 0.178573 0.178573 0.178573 0.178573 0.178573 0.178573 
0.178573 0.178573 0.178573 0.178573 0.178573 0.178573 0.178573 0.178573 0.178573 
0.178573 0.178573 0.178573 0.178573 0.178573 0.178573 0.178573 0.178573 0.178573 
0.178573 0.178573 0.178573 0.178573 0.178573 0.178573 0.178573 0.178573 0.178573 
0.178573 0.178573 0.178573 0.178573 0.178573 0.178573 0.178573 0.178573 0.178573 
0.178573 0.178573 0.178573 0.178573 0.178573 0.178573 0.178573 0.178573 0.178573 
0.178573 0.178573 0.178573 0.178573 0.178573 0.178573 0.178573 0.178573 0.178573 
0.178573 0.178573 0.178573 0.178573 0.178573 0.178573 0.178573 0.178573 0.178573 
0.178573 0.178573 0.178573 0.178573 0.178573 0.178573 0.178573 0.178573 0.178573 
0.178573 0.178573 0.178573 0.178573 0.178573 0.178573 0.178573 0.178573 0.178573 
0.178573 0.178573 0.178573 0.178573 0.178573 0.178573 0.178573 0.178573 0.178573 
0.178573 0.178573 0.178573 0.178573 0.178573 0.178573 0.178573 0.178573 0.178573 
0.178573 0.178573 0.178573 0.178573 0.178573 0.178573 0.178573 0.178573 0.178573 
0.178573 0.178573 0.178573 0.178573 0.178573 0.178573 0.178573 0.178573 0.178573 
0.178573 0.178573 0.178573 0.178573 0.178573 0.178573 0.178573 0.178573 0.178573 
0.178573 0.178573 0.178573 0.178573 0.178573 0.178573 0.178573 0.178573 0.178573 
0.178573 0.178573 0.178573 0.178573 0.178573 0.178573 0.178573 0.178573 0.178573 
0.178573 0.178573 0.178573 0.178573 0.178573 0.178573 0.178573 0.178573 0.178573 
0.178573 0.178573 0.178573 0.178573 0.178573 0.178573 0.178573 0.178573 0.178573 
0.178573 0.178573 0.178573 0.178573 0.178573 0.178573 0.178573 0.178573 0.178573 
0.178573 0.178573 0.178573 0.178573 0.178573 0.178573 0.178573 0.178573 0.178573 
0.178573 0.178573 0.178573 0.178573 0.178573 0.178573 0.178573 0.178573 0.178573 
0.178573 0.178573 0.178573 0.178573 0.178573 0.178573 0.178573 0.178573 0.178573 
0.178573 0.178573 0.178573 0.178573 0.178573 0.178573 0.178573 0.178573 0.178573 
0.178573 0.178573 0.178573 0.178573 0.178573 0.178573 0.178573 0.178573 0.178573 
0.178573 0.178573 0.178573 0.178573 0.178573 0.178573 0.178573 0.178573 0.178573 
0.178573 0.178573 0.178573 0.178573 0.178573 0.178573 0.178573 0.178573 0.178573 
0.178573 0.178573 0.178573 0.178573 0.178573 0.178573 0.178573 0.178573 0.178573 
0.178573 0.178573 0.178573 0.178573 0.178573 0.178573 0.178573 0.178573 0.178573 
0.178573 0.178573 0.178573 0.178573 0.178573 0.178573 0.178573 0.178573 0.178573 
0.178573 0.178573 0.178573 0.178573 0.178573 0.178573 0.178573 0.178573 0.178573 
0.178573 0.178573 0.178573 0.178573 0.178573 0.178573 0.178573 0.178573 0.178573 
0.178573 0.178573 0.178573 0.178573 0.178573 0.178573 0.178573 0.178573 0.178573 
0.178573 0.178573 0.178573 0.178573 0.178573 0.178573 0.178573 0.178573 0.178573 
0.178573 0.178573 0.178573 0.178573 0.178573 0.178573 0.178573 0.178573 0.178573 
0.178573 0.178573 0.178573 0.178573 0.178573 0.178573 0.178573 0.178573 0.178573 
0.178573 0.178573 0.178573 0.178573 0.178573 0.178573 0.178573 0.178573 0.178573 
0.178573 0.178573 0.178573 0.178573 0.178573 0.178573 0.178573 0.178573 0.178573 
0.178573 0.178573 0.178573 0.178573 0.178573 0.178573 0.178573 0.178573 0.178573 
0.178573 0.178573 0.178573 0.178573 0.178573 0.178573 0.178573 0.178573 0.178573 
0.178573 0.178573 0.178573 0.178573 0.178573 0.178573 0.178573 0.178573 0.178573 
0.178573 0.178573 0.178573 0.178573 0.178573 0.178573 0.178573 0.178573 0.178573 
0.178573 0.178573 0.178573 0.178573 0.178573 0.178573 0.178573 0.178573 0.178573 
0.178573 0.178573 0.178573 0.178573 0.178573 0.178573 0.178573 0.178573 0.178573 
0.178573 0.178573 0.178573 0.178573 0.178573 0.178573 0.178573 0.178573 0.178573 
0.178573 0.178573 0.178573 0.178573 0.178573 0.178573 0.178573 0.178573 0.178573 
0.178573 0.178573 0.178573 0.178573 0.178573 0.178573 0.178573 0.178573 0.178573 
0.178573 0.178573 0.178573 0.178573 0.178573 0.178573 0.178573 0.178573 0.178573 
0.178573 0.178573 0.178573 0.178573 0.178573 0.178573 0.178573 0.178573 0.178573 
0.178573 0.178573 0.178573 0.178573 0.178573 0.178573 0.178573 0.178573 0.178573 
0.178573 0.178573 0.178573 0.178573 0.178573 0.178573 0.178573 0.178573 0.178573 
0.178573 0.178573 0.178573 0.178573 0.178573 0.178573 0.178573 0.178573 0.178573 
0.178573 0.178573 0.178573 0.178573 0.178573 0.178573 0.178573 0.178573 0.178573 
0.178573 0.178573 0.178573 0.178573 0.178573 0.178573 0.178573 0.178573 0.178573 
0.178573 0.178573 0.178573 0.178573 0.178573 0.178573 0.178573 0.178573 0.178573 
0.178573 0.178573 0.178573 0.178573 0.178573 0.178573 0.178573 0.178573 0.178573 
0.178573 0.178573 0.178573 0.178573 0.178573 0.178573 0.178573 0.178573 0.178573 
0.178573 0.178573 0.178573 0.178573 0.178573 0.178573 0.178573 0.178573 0.178573 
0.178573 0.178573 0.178573 0.178573 0.178573 0.178573 0.178573 0.178573 0.178573 
0.178573 0.178573 0.178573 0.178573 0.178573 0.178573 0.178573 0.178573 0.178573 
0.178573 0.178573 0.178573 0.178573 0.178573 0.178573 0.178573 0.178573 0.178573 
0.178573 0.178573 0.178573 0.178573 0.178573 0.178573 0.178573 0.178573 0.178573 
0.178573 0.178573 0.178573 0.178573 0.178573 0.178573 0.178573 0.178573 0.178573 
0.178573 0.178573 0.178573 0.178573 0.178573 0.178573 0.178573 0.178573 0.178573 
0.178573 0.178573 0.178573 0.178573 0.178573 0.178573 0.178573 0.178573 0.178573 
0.178573 0.178573 0.178573 0.178573 0.178573 0.178573 0.178573 0.178573 0.178573 
0.178573 0.178573 0.178573 0.178573 0.178573 0.178573 0.178573 0.178573 0.178573 
0.178573 0.178573 0.178573 0.178573 0.178573 0.178573 0.178573 0.178573 0.178573 
0.178573 0.178573 0.178573 0.178573 0.178573 0.178573 0.178573 0.178573 0.178573 
0.178573 0.178573 0.178573 0.178573 0.178573 0.178573 0.178573 0.178573 0.178573 
0.178573 0.178573 0.178573 0.178573 0.178573 0.178573 0.178573 0.178573 0.178573 
0.178573 0.178573 0.178573 0.178573 0.178573 0.178573 0.178573 0.178573 0.178573 
0.178573 0.178573 0.178573 0.178573 0.178573 0.178573 0.178573 0.178573 0.178573 
0.178573 0.178573 0.178573 0.178573 0.178573 0.178573 0.178573 0.178573 0.178573 
0.178573 0.178573 0.178573 0.178573 0.178573 0.178573 0.178573 0.178573 0.178573 
0.178573 0.178573 0.178573 0.178573 0.178573 0.178573 0.178573 0.178573 0.178573 
0.178573 0.178573 0.178573 0.178573 0.178573 0.178573 0.178573 0.178573 0.178573 
0.178573 0.178573 0.178573 0.178573 0.178573 0.178573 0.178573 0.178573 0.178573 
0.178573 0.178573 0.178573 0.178573 0.178573 0.178573 0.178573 0.178573 0.178573 
0.178573 0.178573 0.178573 0.178573 0.178573 0.178573 0.178573 0.178573 0.178573 
0.178573 0.178573 0.178573 0.178573 0.178573 0.178573 0.178573 0.178573 0.178573 
0.178573 0.178573 0.178573 0.178573 0.178573 0.178573 0.178573 0.178573 0.178573 
0.178573 0.178573 0.178573 0.178573 0.178573 0.178573 0.178573 0.178573 0.178573 
0.178573 0.178573 0.178573 0.178573 0.178573 0.178573 0.178573 0.178573 0.178573 
0.178573 0.178573 0.178573 0.178573 0.178573 0.178573 0.178573 0.178573 0.178573 
0.178573 0.178573 0.178573 0.178573 0.178573 0.178573 0.178573 0.178573 0.178573 
0.178573 0.178573 0.178573 0.178573 0.178573 0.178573 0.178573 0.178573 0.178573 
0.178573 0.178573 0.178573 0.178573 0.178573 0.178573 0.178573 0.178573 0.178573 
0.178573 0.178573 0.178573 0.178573 0.178573 0.178573 0.178573 0.178573 0.178573 
0.178573 0.178573 0.178573 0.178573 0.178573 0.178573 0.178573 0.178573 0.178573 
0.178573 0.178573 0.178573 0.178573 0.178573 0.178573 0.178573 0.178573 0.178573 
0.178573 0.178573 0.178573 0.178573 0.178573 0.178573 0.178573 0.178573 0.178573 
0.178573 0.178573 0.178573 0.178573 0.178573 0.178573 0.178573 0.178573 0.178573 
0.178573 0.178573 0.178573 0.178573 0.178573 0.178573 0.178573 0.178573 0.178573 
0.178573 0.178573 0.178573 0.178573 0.178573 0.178573 0.178573 0.178573 0.178573 
0.178573 0.178573 0.178573 0.178573 0.178573 0.178573 0.178573 0.178573 0.178573 
0.178573 0.178573 0.178573 0.178573 0.178573 0.178573 0.178573 0.178573 0.178573 
0.178573 0.178573 0.178573 0.178573 0.178573 0.178573 0.178573 0.178573 0.178573 
0.178573 0.178573 0.178573 0.178573 0.178573 0.178573 0.178573 0.178573 0.178573 
0.178573 0.178573 0.178573 0.178573 0.178573 0.178573 0.178573 0.178573 0.178573 
0.178573 0.178573 0.178573 0.178573 0.178573 0.178573 0.178573 0.178573 0.178573 
0.178573 0.178573 0.178573 0.178573 0.178573 0.178573 0.178573 0.178573 0.178573 
0.178573 0.178573 0.178573 0.178573 0.178573 0.178573 0.178573 0.178573 0.178573 
0.178573 0.178573 0.178573 0.178573 0.178573 0.178573 0.178573 0.178573 0.178573 
0.178573 0.178573 0.178573 0.178573 0.178573 0.178573 0.178573 0.178573 0.178573 
0.178573 0.178573 0.178573 0.178573 0.178573 0.178573 0.178573 0.178573 0.178573 
0.178573 0.178573 0.178573 0.178573 0.178573 0.178573 0.178573 0.178573 0.178573 
0.178573 0.178573 0.178573 0.178573 0.178573 0.178573 0.178573 0.178573 0.178573 
0.178573 0.178573 0.178573 0.178573 0.178573 0.178573 0.178573 0.178573 0.178573 
0.178573 0.178573 0.178573 0.178573 0.178573 0.178573 0.178573 0.178573 0.178573 
0.178573 0.178573 0.178573 0.178573 0.178573 0.178573 0.178573 0.178573 0.178573 
0.178573 0.178573 0.178573 0.178573 0.178573 0.178573 0.178573 0.178573 0.178573 
0.178573 0.178573 0.178573 0.178573 0.178573 0.178573 0.178573 0.178573 0.178573 
0.178573 0.178573 0.178573 0.178573 0.178573 0.178573 0.178573 0.178573 0.178573 
0.178573 0.178573 0.178573 0.178573 0.178573 0.178573 0.178573 0.178573 0.178573 
0.178573 0.178573 0.178573 0.178573 0.178573 0.178573 0.178573 0.178573 0.178573 
0.178573 0.178573 0.178573 0.178573 0.178573 0.178573 0.178573 0.178573 0.178573 
0.178573 0.178573 0.178573 0.178573 0.178573 0.178573 0.178573 0.178573 0.178573 
0.178573 0.178573 0.178573 0.178573 0.178573 0.178573 0.178573 0.178573 0.178573 
0.178573 0.178573 0.178573 0.178573 0.178573 0.178573 0.178573 0.178573 0.178573 
0.178573 0.178573 0.178573 0.178573 0.178573 0.178573 0.178573 0.178573 0.178573 
0.178573 0.178573 0.178573 0.178573 0.178573 0.178573 0.178573 0.178573 0.178573 
0.178573 0.178573 0.178573 0.178573 0.178573 0.178573 0.178573 0.178573 0.178573 
0.178573 0.178573 0.178573 0.178573 0.178573 0.178573 0.178573 0.178573 0.178573 
0.178573 0.178573 0.178573 0.178573 0.178573 0.178573 0.178573 0.178573 0.178573 
0.178573 0.178573 0.178573 0.178573 0.178573 0.178573 0.178573 0.178573 0.178573 
0.178573 0.178573 0.178573 0.178573 0.178573 0.178573 0.178573 0.178573 0.178573 
0.178573 0.178573 0.178573 0.178573 0.178573 0.178573 0.178573 0.178573 0.178573 
0.178573 0.178573 0.178573 0.178573 0.178573 0.178573 0.178573 0.178573 0.178573 
0.178573 0.178573 0.178573 0.178573 0.178573 0.178573 0.178573 0.178573 0.178573 
0.178573 0.178573 0.178573 0.178573 0.178573 0.178573 0.178573 0.178573 0.178573 
0.178573 0.178573 0.178573 0.178573 0.178573 0.178573 0.178573 0.178573 0.178573 
0.178573 0.178573 0.178573 0.178573 0.178573 0.178573 0.178573 0.178573 0.178573 
0.178573 0.178573 0.178573 0.178573 0.178573 0.178573 0.178573 0.178573 0.178573 
0.178573 0.178573 0.178573 0.178573 0.178573 0.178573 0.178573 0.178573 0.178573 
0.178573 0.178573 0.178573 0.178573 0.178573 0.178573 0.178573 0.178573 0.178573 
0.178573 0.178573 0.178573 0.178573 0.178573 0.178573 0.178573 0.178573 0.178573 
0.178573 0.178573 0.178573 0.178573 0.178573 0.178573 0.178573 0.178573 0.178573 
0.178573 0.178573 0.178573 0.178573 0.178573 0.178573 0.178573 0.178573 0.178573 
0.178573 0.178573 0.178573 0.178573 0.178573 0.178573 0.178573 0.178573 0.178573 
0.178573 0.178573 0.178573 0.178573 0.178573 0.178573 0.178573 0.178573 0.178573 
0.178573 0.178573 0.178573 0.178573 0.178573 0.178573 0.178573 0.178573 0.178573 
0.178573 0.178573 0.178573 0.178573 0.178573 0.178573 0.178573 0.178573 0.178573 
0.178573 0.178573 0.178573 0.178573 0.178573 0.178573 0.178573 0.178573 0.178573 
0.178573 0.178573 0.178573 0.178573 0.178573 0.178573 0.178573 0.178573 0.178573 
0.178573 0.178573 0.178573 0.178573 0.178573 0.178573 0.178573 0.178573 0.178573 
0.178573 0.178573 0.178573 0.178573 0.178573 0.178573 0.178573 0.178573 0.178573 
0.178573 0.178573 0.178573 0.178573 0.178573 0.178573 0.178573 0.178573 0.178573 
0.178573 0.178573 0.178573 0.178573 0.178573 0.178573 0.178573 0.178573 0.178573 
0.178573 0.178573 0.178573 0.178573 0.178573 0.178573 0.178573 0.178573 0.178573 
0.178573 0.178573 0.178573 0.178573 0.178573 0.178573 0.178573 0.178573 0.178573 
0.178573 0.178573 0.178573 0.178573 0.178573 0.178573 0.178573 0.178573 0.178573 
0.178573 0.178573 0.178573 0.178573 0.178573 0.178573 0.178573 0.178573 0.178573 
0.178573 0.178573 0.178573 0.178573 0.178573 0.178573 0.178573 0.178573 0.178573 
0.178573 0.178573 0.178573 0.178573 0.178573 0.178573 0.178573 0.178573 0.178573 