# vtk DataFile Version 5.1
vtk output
ASCII
DATASET STRUCTURED_GRID
DIMENSIONS 12 25 25
POINTS 7500 float
1.44059 3 -0.5 1.44059 2.66947 -0.5 1.44059 2.4101 -0.5 
1.44059 2.20612 -0.5 1.44059 2.04511 -0.5 1.44059 1.91728 -0.5 
1.44059 1.81483 -0.5 1.44059 1.73155 -0.5 1.44059 1.66236 -0.5 
1.44059 1.60304 -0.5 1.44059 1.55 -0.5 1.44059 1.5 -0.5 
1.44059 3 -0.503 1.44059 2.66947 -0.503 1.44059 2.4101 -0.503 
1.44059 2.20612 -0.503 1.44059 2.04511 -0.503 1.44059 1.91728 -0.503 
1.44059 1.81483 -0.503 1.44059 1.73155 -0.503 1.44059 1.66236 -0.503 
1.44059 1.60304 -0.503 1.44059 1.55 -0.503 1.44059 1.5 -0.503 
1.44059 3 -0.506095 1.44059 2.66947 -0.506095 1.44059 2.4101 -0.506095 
1.44059 2.20612 -0.506095 1.44059 2.04511 -0.506095 1.44059 1.91728 -0.506095 
1.44059 1.81483 -0.506095 1.44059 1.73155 -0.506095 1.44059 1.66236 -0.506095 
1.44059 1.60304 -0.506095 1.44059 1.55 -0.506095 1.44059 1.5 -0.506095 
1.44059 3 -0.509384 1.44059 2.66947 -0.509384 1.44059 2.4101 -0.509384 
1.44059 2.20612 -0.509384 1.44059 2.04511 -0.509384 1.44059 1.91728 -0.509384 
1.44059 1.81483 -0.509384 1.44059 1.73155 -0.509384 1.44059 1.66236 -0.509384 
1.44059 1.60304 -0.509384 1.44059 1.55 -0.509384 1.44059 1.5 -0.509384 
1.44059 3 -0.512971 1.44059 2.66947 -0.512971 1.44059 2.4101 -0.512971 
1.44059 2.20612 -0.512971 1.44059 2.04511 -0.512971 1.44059 1.91728 -0.512971 
1.44059 1.81483 -0.512971 1.44059 1.73155 -0.512971 1.44059 1.66236 -0.512971 
1.44059 1.60304 -0.512971 1.44059 1.55 -0.512971 1.44059 1.5 -0.512971 
1.44059 3 -0.516969 1.44059 2.66947 -0.516969 1.44059 2.4101 -0.516969 
1.44059 2.20612 -0.516969 1.44059 2.04511 -0.516969 1.44059 1.91728 -0.516969 
1.44059 1.81483 -0.516969 1.44059 1.73155 -0.516969 1.44059 1.66236 -0.516969 
1.44059 1.60304 -0.516969 1.44059 1.55 -0.516969 1.44059 1.5 -0.516969 
1.44059 3 -0.521506 1.44059 2.66947 -0.521506 1.44059 2.4101 -0.521506 
1.44059 2.20612 -0.521506 1.44059 2.04511 -0.521506 1.44059 1.91728 -0.521506 
1.44059 1.81483 -0.521506 1.44059 1.73155 -0.521506 1.44059 1.66236 -0.521506 
1.44059 1.60304 -0.521506 1.44059 1.55 -0.521506 1.44059 1.5 -0.521506 
1.44059 3 -0.526726 1.44059 2.66947 -0.526726 1.44059 2.4101 -0.526726 
1.44059 2.20612 -0.526726 1.44059 2.04511 -0.526726 1.44059 1.91728 -0.526726 
1.44059 1.81483 -0.526726 1.44059 1.73155 -0.526726 1.44059 1.66236 -0.526726 
1.44059 1.60304 -0.526726 1.44059 1.55 -0.526726 1.44059 1.5 -0.526726 
1.44059 3 -0.532795 1.44059 2.66947 -0.532795 1.44059 2.4101 -0.532795 
1.44059 2.20612 -0.532795 1.44059 2.04511 -0.532795 1.44059 1.91728 -0.532795 
1.44059 1.81483 -0.532795 1.44059 1.73155 -0.532795 1.44059 1.66236 -0.532795 
1.44059 1.60304 -0.532795 1.44059 1.55 -0.532795 1.44059 1.5 -0.532795 
1.44059 3 -0.539904 1.44059 2.66947 -0.539904 1.44059 2.4101 -0.539904 
1.44059 2.20612 -0.539904 1.44059 2.04511 -0.539904 1.44059 1.91728 -0.539904 
1.44059 1.81483 -0.539904 1.44059 1.73155 -0.539904 1.44059 1.66236 -0.539904 
1.44059 1.60304 -0.539904 1.44059 1.55 -0.539904 1.44059 1.5 -0.539904 
1.44059 3 -0.548281 1.44059 2.66947 -0.548281 1.44059 2.4101 -0.548281 
1.44059 2.20612 -0.548281 1.44059 2.04511 -0.548281 1.44059 1.91728 -0.548281 
1.44059 1.81483 -0.548281 1.44059 1.73155 -0.548281 1.44059 1.66236 -0.548281 
1.44059 1.60304 -0.548281 1.44059 1.55 -0.548281 1.44059 1.5 -0.548281 
1.44059 3 -0.55819 1.44059 2.66947 -0.55819 1.44059 2.4101 -0.55819 
1.44059 2.20612 -0.55819 1.44059 2.04511 -0.55819 1.44059 1.91728 -0.55819 
1.44059 1.81483 -0.55819 1.44059 1.73155 -0.55819 1.44059 1.66236 -0.55819 
1.44059 1.60304 -0.55819 1.44059 1.55 -0.55819 1.44059 1.5 -0.55819 
1.44059 3 -0.569947 1.44059 2.66947 -0.569947 1.44059 2.4101 -0.569947 
1.44059 2.20612 -0.569947 1.44059 2.04511 -0.569947 1.44059 1.91728 -0.569947 
1.44059 1.81483 -0.569947 1.44059 1.73155 -0.569947 1.44059 1.66236 -0.569947 
1.44059 1.60304 -0.569947 1.44059 1.55 -0.569947 1.44059 1.5 -0.569947 
1.44059 3 -0.583924 1.44059 2.66947 -0.583924 1.44059 2.4101 -0.583924 
1.44059 2.20612 -0.583924 1.44059 2.04511 -0.583924 1.44059 1.91728 -0.583924 
1.44059 1.81483 -0.583924 1.44059 1.73155 -0.583924 1.44059 1.66236 -0.583924 
1.44059 1.60304 -0.583924 1.44059 1.55 -0.583924 1.44059 1.5 -0.583924 
1.44059 3 -0.600565 1.44059 2.66947 -0.600565 1.44059 2.4101 -0.600565 
1.44059 2.20612 -0.600565 1.44059 2.04511 -0.600565 1.44059 1.91728 -0.600565 
1.44059 1.81483 -0.600565 1.44059 1.73155 -0.600565 1.44059 1.66236 -0.600565 
1.44059 1.60304 -0.600565 1.44059 1.55 -0.600565 1.44059 1.5 -0.600565 
1.44059 3 -0.6204 1.44059 2.66947 -0.6204 1.44059 2.4101 -0.6204 
1.44059 2.20612 -0.6204 1.44059 2.04511 -0.6204 1.44059 1.91728 -0.6204 
1.44059 1.81483 -0.6204 1.44059 1.73155 -0.6204 1.44059 1.66236 -0.6204 
1.44059 1.60304 -0.6204 1.44059 1.55 -0.6204 1.44059 1.5 -0.6204 
1.44059 3 -0.644057 1.44059 2.66947 -0.644057 1.44059 2.4101 -0.644057 
1.44059 2.20612 -0.644057 1.44059 2.04511 -0.644057 1.44059 1.91728 -0.644057 
1.44059 1.81483 -0.644057 1.44059 1.73155 -0.644057 1.44059 1.66236 -0.644057 
1.44059 1.60304 -0.644057 1.44059 1.55 -0.644057 1.44059 1.5 -0.644057 
1.44059 3 -0.672287 1.44059 2.66947 -0.672287 1.44059 2.4101 -0.672287 
1.44059 2.20612 -0.672287 1.44059 2.04511 -0.672287 1.44059 1.91728 -0.672287 
1.44059 1.81483 -0.672287 1.44059 1.73155 -0.672287 1.44059 1.66236 -0.672287 
1.44059 1.60304 -0.672287 1.44059 1.55 -0.672287 1.44059 1.5 -0.672287 
1.44059 3 -0.705987 1.44059 2.66947 -0.705987 1.44059 2.4101 -0.705987 
1.44059 2.20612 -0.705987 1.44059 2.04511 -0.705987 1.44059 1.91728 -0.705987 
1.44059 1.81483 -0.705987 1.44059 1.73155 -0.705987 1.44059 1.66236 -0.705987 
1.44059 1.60304 -0.705987 1.44059 1.55 -0.705987 1.44059 1.5 -0.705987 
1.44059 3 -0.746226 1.44059 2.66947 -0.746226 1.44059 2.4101 -0.746226 
1.44059 2.20612 -0.746226 1.44059 2.04511 -0.746226 1.44059 1.91728 -0.746226 
1.44059 1.81483 -0.746226 1.44059 1.73155 -0.746226 1.44059 1.66236 -0.746226 
1.44059 1.60304 -0.746226 1.44059 1.55 -0.746226 1.44059 1.5 -0.746226 
1.44059 3 -0.794282 1.44059 2.66947 -0.794282 1.44059 2.4101 -0.794282 
1.44059 2.20612 -0.794282 1.44059 2.04511 -0.794282 1.44059 1.91728 -0.794282 
1.44059 1.81483 -0.794282 1.44059 1.73155 -0.794282 1.44059 1.66236 -0.794282 
1.44059 1.60304 -0.794282 1.44059 1.55 -0.794282 1.44059 1.5 -0.794282 
1.44059 3 -0.851682 1.44059 2.66947 -0.851682 1.44059 2.4101 -0.851682 
1.44059 2.20612 -0.851682 1.44059 2.04511 -0.851682 1.44059 1.91728 -0.851682 
1.44059 1.81483 -0.851682 1.44059 1.73155 -0.851682 1.44059 1.66236 -0.851682 
1.44059 1.60304 -0.851682 1.44059 1.55 -0.851682 1.44059 1.5 -0.851682 
1.44059 3 -0.920246 1.44059 2.66947 -0.920246 1.44059 2.4101 -0.920246 
1.44059 2.20612 -0.920246 1.44059 2.04511 -0.920246 1.44059 1.91728 -0.920246 
1.44059 1.81483 -0.920246 1.44059 1.73155 -0.920246 1.44059 1.66236 -0.920246 
1.44059 1.60304 -0.920246 1.44059 1.55 -0.920246 1.44059 1.5 -0.920246 
1.44059 3 -1.00215 1.44059 2.66947 -1.00215 1.44059 2.4101 -1.00215 
1.44059 2.20612 -1.00215 1.44059 2.04511 -1.00215 1.44059 1.91728 -1.00215 
1.44059 1.81483 -1.00215 1.44059 1.73155 -1.00215 1.44059 1.66236 -1.00215 
1.44059 1.60304 -1.00215 1.44059 1.55 -1.00215 1.44059 1.5 -1.00215 
1.44059 3 -1.1 1.44059 2.66947 -1.1 1.44059 2.4101 -1.1 
1.44059 2.20612 -1.1 1.44059 2.04511 -1.1 1.44059 1.91728 -1.1 
1.44059 1.81483 -1.1 1.44059 1.73155 -1.1 1.44059 1.66236 -1.1 
1.44059 1.60304 -1.1 1.44059 1.55 -1.1 1.44059 1.5 -1.1 
1.44307 3 -0.500329 1.44314 2.66976 -0.500339 1.44321 2.41061 -0.500347 
1.44325 2.20678 -0.500353 1.44329 2.04587 -0.500358 1.44332 1.91811 -0.500362 
1.44334 1.81571 -0.500365 1.44336 1.73245 -0.500368 1.44338 1.66328 -0.50037 
1.44339 1.60397 -0.500372 1.44341 1.55093 -0.500374 1.44342 1.50093 -0.500375 
1.44307 3 -0.503329 1.44314 2.66976 -0.503339 1.44321 2.41061 -0.503347 
1.44325 2.20678 -0.503353 1.44329 2.04587 -0.503358 1.44332 1.91811 -0.503362 
1.44334 1.81571 -0.503365 1.44336 1.73245 -0.503368 1.44338 1.66328 -0.50337 
1.44339 1.60397 -0.503372 1.44341 1.55093 -0.503374 1.44342 1.50093 -0.503375 
1.44307 3 -0.506424 1.44314 2.66976 -0.506434 1.44321 2.41061 -0.506442 
1.44325 2.20678 -0.506449 1.44329 2.04587 -0.506454 1.44332 1.91811 -0.506457 
1.44334 1.81571 -0.506461 1.44336 1.73245 -0.506463 1.44338 1.66328 -0.506465 
1.44339 1.60397 -0.506467 1.44341 1.55093 -0.506469 1.44342 1.50093 -0.50647 
1.44307 3 -0.509713 1.44315 2.66976 -0.509723 1.44321 2.41061 -0.509731 
1.44325 2.20678 -0.509737 1.44329 2.04587 -0.509742 1.44332 1.91811 -0.509746 
1.44334 1.81571 -0.509749 1.44336 1.73245 -0.509752 1.44338 1.66328 -0.509754 
1.44339 1.60397 -0.509756 1.44341 1.55093 -0.509757 1.44342 1.50093 -0.509759 
1.44307 3 -0.513299 1.44315 2.66976 -0.513309 1.44321 2.41061 -0.513317 
1.44325 2.20678 -0.513324 1.44329 2.04587 -0.513329 1.44332 1.91811 -0.513332 
1.44334 1.81571 -0.513336 1.44336 1.73245 -0.513338 1.44338 1.66328 -0.51334 
1.44339 1.60397 -0.513342 1.44341 1.55093 -0.513344 1.44342 1.50093 -0.513345 
1.44307 3 -0.517297 1.44315 2.66976 -0.517307 1.44321 2.41061 -0.517315 
1.44325 2.20678 -0.517322 1.44329 2.04587 -0.517327 1.44332 1.91811 -0.517331 
1.44334 1.81571 -0.517334 1.44336 1.73245 -0.517336 1.44338 1.66328 -0.517338 
1.44339 1.60397 -0.51734 1.44341 1.55093 -0.517342 1.44342 1.50093 -0.517343 
1.44307 3 -0.521834 1.44315 2.66976 -0.521844 1.44321 2.41061 -0.521852 
1.44325 2.20678 -0.521858 1.44329 2.04587 -0.521863 1.44332 1.91811 -0.521867 
1.44334 1.81571 -0.52187 1.44336 1.73245 -0.521873 1.44338 1.66328 -0.521875 
1.44339 1.60397 -0.521877 1.44341 1.55093 -0.521878 1.44342 1.50093 -0.52188 
1.44307 3 -0.527053 1.44315 2.66976 -0.527063 1.44321 2.41061 -0.527071 
1.44325 2.20678 -0.527077 1.44329 2.04587 -0.527082 1.44332 1.91811 -0.527086 
1.44334 1.81571 -0.527089 1.44337 1.73245 -0.527092 1.44338 1.66328 -0.527094 
1.44339 1.60397 -0.527096 1.44341 1.55093 -0.527097 1.44342 1.50093 -0.527099 
1.44307 3 -0.53312 1.44315 2.66976 -0.53313 1.44321 2.41061 -0.533138 
[...]
POINT_DATA 7500
FIELD FieldData 5
pressure 1 7500 float
0.178573 0.178573 0.178573 0.178573 0.178573 0.178573 0.178573 0.178573 0.178573 
0.178573 0.178573 0.178573 0.178573 0.178573 0.178573 0.178573 0.178573 0.178573 
0.178573 0.178573 0.178573 0.178573 0.178573 0.178573 0.178573 0.178573 0.178573 
0.178573 0.178573 0.178573 0.178573 0.178573 0.178573 0.178573 0.178573 0.178573 
0.178573 0.178573 0.178573 0.178573 0.178573 0.178573 0.178573 0.178573 0.178573 
0.178573 0.178573 0.178573 0.178573 0.178573 0.178573 0.178573 0.178573 0.178573 
0.178573 0.178573 0.178573 0.178573 0.178573 0.178573 0.178573 0.178573 0.178573 
0.178573 0.178573 0.178573 0.178573 0.178573 0.178573 0.178573 0.178573 0.178573 
0.178573 0.178573 0.178573 0.178573 0.178573 0.178573 0.178573 0.178573 0.178573 
0.178573 0.178573 0.178573 0.178573 0.178573 0.178573 0.178573 0.178573 0.178573 
0.178573 0.178573 0.178573 0.178573 0.178573 0.178573 0.178573 0.178573 0.178573 
0.178573 0.178573 0.178573 0.178573 0.178573 0.178573 0.178573 0.178573 0.178573 
0.178573 0.178573 0.178573 0.178573 0.178573 0.178573 0.178573 0.178573 0.178573 
0.178573 0.178573 0.178573 0.178573 0.178573 0.178573 0.178573 0.178573 0.178573 
0.178573 0.178573 0.178573 0.178573 0.178573 0.178573 0.178573 0.178573 0.178573 
0.178573 0.178573 0.178573 0.178573 0.178573 0.178573 0.178573 0.178573 0.178573 
0.178573 0.178573 0.178573 0.178573 0.178573 0.178573 0.178573 0.178573 0.178573 
0.178573 0.178573 0.178573 0.178573 0.178573 0.178573 0.178573 0.178573 0.178573 
0.178573 0.178573 0.178573 0.178573 0.178573 0.178573 0.178573 0.178573 0.178573 
0.178573 0.178573 0.178573 0.178573 0.178573 0.178573 0.178573 0.178573 0.178573 
0.178573 0.178573 0.178573 0.178573 0.178573 0.178573 0.178573 0.178573 0.178573 
0.178573 0.178573 0.178573 0.178573 0.178573 0.178573 0.178573 0.178573 0.178573 
0.178573 0.178573 0.178573 0.178573 0.178573 0.178573 0.178573 0.178573 0.178573 
0.178573 0.178573 0.178573 0.178573 0.178573 0.178573 0.178573 0.178573 0.178573 
0.178573 0.178573 0.178573 0.178573 0.178573 0.178573 0.178573 0.178573 0.178573 
0.178573 0.178573 0.178573 0.178573 0.178573 0.178573 0.178573 0.178573 0.178573 
0.178573 0.178573 0.178573 0.178573 0.178573 0.178573 0.178573 0.178573 0.178573 
0.178573 0.178573 0.178573 0.178573 0.178573 0.178573 0.178573 0.178573 0.178573 
0.178573 0.178573 0.178573 0.178573 0.178573 0.178573 0.178573 0.178573 0.178573 
0.178573 0.178573 0.178573 0.178573 0.178573 0.178573 0.178573 0.178573 0.178573 
0.178573 0.178573 0.178573 0.178573 0.178573 0.178573 0.178573 0.178573 0.178573 
0.178573 0.178573 0.178573 0.178573 0.178573 0.178573 0.178573 0.178573 0.178573 
0.178573 0.178573 0.178573 0.178573 0.178573 0.178573 0.178573 0.178573 0.178573 
0.178573 0.178573 0.178573 0.178573 0.178573 0.178573 0.178573 0.178573 0.178573 
0.178573 0.178573 0.178573 0.178573 0.178573 0.178573 0.178573 0.178573 0.178573 
0.178573 0.178573 0.178573 0.178573 0.178573 0.178573 0.178573 0.178573 0.178573 
0.178573 0.178573 0.178573 0.178573 0.178573 0.178573 0.178573 0.178573 0.178573 
0.178573 0.178573 0.178573 0.178573 0.178573 0.178573 0.178573 0.178573 0.178573 
0.178573 0.178573 0.178573 0.178573 0.178573 0.178573 0.178573 0.178573 0.178573 
0.178573 0.178573 0.178573 0.178573 0.178573 0.178573 0.178573 0.178573 0.178573 
0.178573 0.178573 0.178573 0.178573 0.178573 0.178573 0.178573 0.178573 0.178573 
0.178573 0.178573 0.178573 0.178573 0.178573 0.178573 0.178573 0.178573 0.178573 
0.178573 0.178573 0.178573 0.178573 0.178573 0.178573 0.178573 0.178573 0.178573 
0.178573 0.178573 0.178573 0.178573 0.178573 0.178573 0.178573 0.178573 0.178573 
0.178573 0.178573 0.178573 0.178573 0.178573 0.178573 0.178573 0.178573 0.178573 
0.178573 0.178573 0.178573 0.178573 0.178573 0.178573 0.178573 0.178573 0.178573 
0.178573 0.178573 0.178573 0.178573 0.178573 0.178573 0.178573 0.178573 0.178573 
0.178573 0.178573 0.178573 0.178573 0.178573 0.178573 0.178573 0.178573 0.178573 
0.178573 0.178573 0.178573 0.178573 0.178573 0.178573 0.178573 0.178573 0.178573 
0.178573 0.178573 0.178573 0.178573 0.178573 0.178573 0.178573 0.178573 0.178573 
0.178573 0.178573 0.178573 0.178573 0.178573 0.178573 0.178573 0.178573 0.178573 
0.178573 0.178573 0.178573 0.178573 0.178573 0.178573 0.178573 0.178573 0.178573 
0.178573 0.178573 0.178573 0.178573 0.178573 0.178573 0.178573 0.178573 0.178573 
0.178573 0.178573 0.178573 0.178573 0.178573 0.178573 0.178573 0.178573 0.178573 
0.178573 0.178573 0.178573 0.178573 0.178573 0.178573 0.178573 0.178573 0.178573 
0.178573 0.178573 0.178573 0.178573 0.178573 0.178573 0.178573 0.178573 0.178573 
0.178573 0.178573 0.178573 0.178573 0.178573 0.178573 0.178573 0.178573 0.178573 
0.178573 0.178573 0.178573 0.178573 0.178573 0.178573 0.178573 0.178573 0.178573 
0.178573 0.178573 0.178573 0.178573 0.178573 0.178573 0.178573 0.178573 0.178573 
0.178573 0.178573 0.178573 0.178573 0.178573 0.178573 0.178573 0.178573 0.178573 
0.178573 0.178573 0.178573 0.178573 0.178573 0.178573 0.178573 0.178573 0.178573 
0.178573 0.178573 0.178573 0.178573 0.178573 0.178573 0.178573 0.178573 0.178573 
0.178573 0.178573 0.178573 0.178573 0.178573 0.178573 0.178573 0.178573 0.178573 
0.178573 0.178573 0.178573 0.178573 0.178573 0.178573 0.178573 0.178573 0.178573 
0.178573 0.178573 0.178573 0.178573 0.178573 0.178573 0.178573 0.178573 0.178573 
0.178573 0.178573 0.178573 0.178573 0.178573 0.178573 0.178573 0.178573 0.178573 
0.178573 0.178573 0.178573 0.178573 0.178573 0.178573 0.178573 0.178573 0.178573 
0.178573 0.178573 0.178573 0.178573 0.178573 0.178573 0.178573 0.178573 0.178573 
0.178573 0.178573 0.178573 0.178573 0.178573 0.178573 0.178573 0.178573 0.178573 
0.178573 0.178573 0.178573 0.178573 0.178573 0.178573 0.178573 0.178573 0.178573 
0.178573 0.178573 0.178573 0.178573 0.178573 0.178573 0.178573 0.178573 0.178573 
0.178573 0.178573 0.178573 0.178573 0.178573 0.178573 0.178573 0.178573 0.178573 
0.178573 0.178573 0.178573 0.178573 0.178573 0.178573 0.178573 0.178573 0.178573 
0.178573 0.178573 0.178573 0.178573 0.178573 0.178573 0.178573 0.178573 0.178573 
0.178573 0.178573 0.178573 0.178573 0.178573 0.178573 0.178573 0.178573 0.178573 
0.178573 0.178573 0.178573 0.178573 0.178573 0.178573 0.178573 0.178573 0.178573 
0.178573 0.178573 0.178573 0.178573 0.178573 0.178573 0.178573 0.178573 0.178573 
0.178573 0.178573 0.178573 0.178573 0.178573 0.178573 0.178573 0.178573 0.178573 
0.178573 0.178573 0.178573 0.178573 0.178573 0.178573 0.178573 0.178573 0.178573 
0.178573 0.178573 0.178573 0.178573 0.178573 0.178573 0.178573 0.178573 0.178573 
0.178573 0.178573 0.178573 0.178573 0.178573 0.178573 0.178573 0.178573 0.178573 
0.178573 0.178573 0.178573 0.178573 0.178573 0.178573 0.178573 0.178573 0.178573 
0.178573 0.178573 0.178573 0.178573 0.178573 0.178573 0.178573 0.178573 0.178573 
0.178573 0.178573 0.178573 0.178573 0.178573 0.178573 0.178573 0.178573 0.178573 
0.178573 0.178573 0.178573 0.178573 0.178573 0.178573 0.178573 0.178573 0.178573 
0.178573 0.178573 0.178573 0.178573 0.178573 0.178573 0.178573 0.178573 0.178573 
0.178573 0.178573 0.178573 0.178573 0.178573 0.178573 0.178573 0.178573 0.178573 
0.178573 0.178573 0.178573 0.178573 0.178573 0.178573 0.178573 0.178573 0.178573 
0.178573 0.178573 0.178573 0.178573 0.178573 0.178573 0.178573 0.178573 0.178573 
0.178573 0.178573 0.178573 0.178573 0.178573 0.178573 0.178573 0.178573 0.178573 
0.178573 0.178573 0.178573 0.178573 0.178573 0.178573 0.178573 0.178573 0.178573 
0.178573 0.178573 0.178573 0.178573 0.178573 0.178573 0.178573 0.178573 0.178573 
0.178573 0.178573 0.178573 0.178573 0.178573 0.178573 0.178573 0.178573 0.178573 
0.178573 0.178573 0.178573 0.178573 0.178573 0.178573 0.178573 0.178573 0.178573 
0.178573 0.178573 0.178573 0.178573 0.178573 0.178573 0.178573 0.178573 0.178573 
0.178573 0.178573 0.178573 0.178573 0.178573 0.178573 0.178573 0.178573 0.178573 
0.178573 0.178573 0.178573 0.178573 0.178573 0.178573 0.178573 0.178573 0.178573 
0.178573 0.178573 0.178573 0.178573 0.178573 0.178573 0.178573 0.178573 0.178573 
0.178573 0.178573 0.178573 0.178573 0.178573 0.178573 0.178573 0.178573 0.178573 
0.178573 0.178573 0.178573 0.178573 0.178573 0.178573 0.178573 0.178573 0.178573 
0.178573 0.178573 0.178573 0.178573 0.178573 0.178573 0.178573 0.178573 0.178573 
0.178573 0.178573 0.178573 0.178573 0.178573 0.178573 0.178573 0.178573 0.178573 
0.178573 0.178573 0.178573 0.178573 0.178573 0.178573 0.178573 0.178573 0.178573 
0.178573 0.178573 0.178573 0.178573 0.178573 0.178573 0.178573 0.178573 0.178573 
0.178573 0.178573 0.178573 0.178573 0.178573 0.178573 0.178573 0.178573 0.178573 
0.178573 0.178573 0.178573 0.178573 0.178573 0.178573 0.178573 0.178573 0.178573 
0.178573 0.178573 0.178573 0.178573 0.178573 0.178573 0.178573 0.178573 0.178573 
0.178573 0.178573 0.178573 0.178573 0.178573 0.178573 0.178573 0.178573 0.178573 
0.178573 0.178573 0.178573 0.178573 0.178573 0.178573 0.178573 0.178573 0.178573 
0.178573 0.178573 0.178573 0.178573 0.178573 0.178573 0.178573 0.178573 0.178573 
0.178573 0.178573 0.178573 0.178573 0.178573 0.178573 0.178573 0.178573 0.178573 
0.178573 0.178573 0.178573 0.178573 0.178573 0.178573 0.178573 0.178573 0.178573 
0.178573 0.178573 0.178573 0.178573 0.178573 0.178573 0.178573 0.178573 0.178573 
0.178573 0.178573 0.178573 0.178573 0.178573 0.178573 0.178573 0.178573 0.178573 
0.178573 0.178573 0.178573 0.178573 0.178573 0.178573 0.178573 0.178573 0.178573 
0.178573 0.178573 0.178573 0.178573 0.178573 0.178573 0.178573 0.178573 0.178573 
0.178573 0.178573 0.178573 0.178573 0.178573 0.178573 0.178573 0.178573 0.178573 
0.178573 0.178573 0.178573 0.178573 0.178573 0.178573 0.178573 0.178573 0.178573 
0.178573 0.178573 0.178573 0.178573 0.178573 0.178573 0.178573 0.178573 0.178573 
0.178573 0.178573 0.178573 0.178573 0.178573 0.178573 0.178573 0.178573 0.178573 
0.178573 0.178573 0.178573 0.178573 0.178573 0.178573 0.178573 0.178573 0.178573 
0.178573 0.178573 0.178573 0.178573 0.178573 0.178573 0.178573 0.178573 0.178573 
0.178573 0.178573 0.178573 0.178573 0.178573 0.178573 0.178573 0.178573 0.178573 
0.178573 0.178573 0.178573 0.178573 0.178573 0.178573 0.178573 0.178573 0.178573 
0.178573 0.178573 0.178573 0.178573 0.178573 0.178573 0.178573 0.178573 0.178573 
0.178573 0.178573 0.178573 0.178573 0.178573 0.178573 0.178573 0.178573 0.178573 
0.178573 0.178573 0.178573 0.178573 0.178573 0.178573 0.178573 0.178573 0.178573 
0.178573 0.178573 0.178573 0.178573 0.178573 0.178573 0.178573 0.178573 0.178573 
0.178573 0.178573 0.178573 0.178573 0.178573 0.178573 0.178573 0.178573 0.178573 
0.178573 0.178573 0.178573 0.178573 0.178573 0.178573 0.178573 0.178573 0.178573 
0.178573 0.178573 0.178573 0.178573 0.178573 0.178573 0.178573 0.178573 0.178573 
0.178573 0.178573 0.178573 0.178573 0.178573 0.178573 0.178573 0.178573 0.178573 
0.178573 0.178573 0.178573 0.178573 0.178573 0.178573 0.178573 0.178573 0.178573 
0.178573 0.178573 0.178573 0.178573 0.178573 0.178573 0.178573 0.178573 0.178573 
0.178573 0.178573 0.178573 0.178573 0.178573 0.178573 0.178573 0.178573 0.178573 
0.178573 0.178573 0.178573 0.178573 0.178573 0.178573 0.178573 0.178573 0.178573 
0.178573 0.178573 0.178573 0.178573 0.178573 0.178573 0.178573 0.178573 0.178573 
0.178573 0.178573 0.178573 0.178573 0.178573 0.178573 0.178573 0.178573 0.178573 
0.178573 0.178573 0.178573 0.178573 0.178573 0.178573 0.178573 0.178573 0.178573 
0.178573 0.178573 0.178573 0.178573 0.178573 0.178573 0.178573 0.178573 0.178573 
0.178573 0.178573 0.178573 0.178573 0.178573 0.178573 0.178573 0.178573 0.178573 
0.178573 0.178573 0.178573 0.178573 0.178573 0.178573 0.178573 0.178573 0.178573 
0.178573 0.178573 0.178573 0.178573 0.178573 0.178573 0.178573 0.178573 0.178573 
0.178573 0.178573 0.178573 0.178573 0.178573 0.178573 0.178573 0.178573 0.178573 
0.178573 0.178573 0.178573 0.178573 0.178573 0.178573 0.178573 0.178573 0.178573 
0.178573 0.178573 0.178573 0.178573 0.178573 0.178573 0.178573 0.178573 0.178573 
0.178573 0.178573 0.178573 0.178573 0.178573 0.178573 0.178573 0.178573 0.178573 
0.178573 0.178573 0.178573 0.178573 0.178573 0.178573 0.178573 0.178573 0.178573 
0.178573 0.178573 0.178573 0.178573 0.178573 0.178573 0.178573 0.178573 0.178573 
0.178573 0.178573 0.178573 0.178573 0.178573 0.178573 0.178573 0.178573 0.178573 
0.178573 0.178573 0.178573 0.178573 0.178573 0.178573 0.178573 0.178573 0.178573 
0.178573 0.178573 0.178573 0.178573 0.178573 0.178573 0.178573 0.178573 0.178573 
0.178573 0.178573 0.178573 0.178573 0.178573 0.178573 0.178573 0.178573 0.178573 
0.178573 0.178573 0.178573 0.178573 0.178573 0.178573 0.178573 0.178573 0.178573 
0.178573 0.178573 0.178573 0.178573 0.178573 0.178573 0.178573 0.178573 0.178573 
0.178573 0.178573 0.178573 0.178573 0.178573 0.178573 0.178573 0.178573 0.178573 
0.178573 0.178573 0.178573 0.178573 0.178573 0.178573 0.178573 0.178573 0.178573 
0.178573 0.178573 0.178573 0.178573 0.178573 0.178573 0.178573 0.178573 0.178573 
0.178573 0.178573 0.178573 0.178573 0.178573 0.178573 0.178573 0.178573 0.178573 
0.178573 0.178573 0.178573 0.178573 0.178573 0.178573 0.178573 0.178573 0.178573 
0.178573 0.178573 0.178573 0.178573 0.178573 0.178573 0.178573 0.178573 0.178573 
0.178573 0.178573 0.178573 0.178573 0.178573 0.178573 0.178573 0.178573 0.178573 
0.178573 0.178573 0.178573 0.178573 0.178573 0.178573 0.178573 0.178573 0.178573 
0.178573 0.178573 0.178573 0.178573 0.178573 0.178573 0.178573 0.178573 0.178573 
0.178573 0.178573 0.178573 0.178573 0.178573 0.178573 0.178573 0.178573 0.178573 
0.178573 0.178573 0.178573 0.178573 0.178573 0.178573 0.178573 0.178573 0.178573 
0.178573 0.178573 0.178573 0.178573 0.178573 0.178573 0.178573 0.178573 0.178573 
0.178573 0.178573 0.178573 0.178573 0.178573 0.178573 0.178573 0.178573 0.178573 
0.178573 0.178573 0.178573 0.178573 0.178573 0.178573 0.178573 0.178573 0.178573 
0.178573 0.178573 0.178573 0.178573 0.178573 0.178573 0.178573 0.178573 0.178573 
0.178573 0.178573 0.178573 0.178573 0.178573 0.178573 0.178573 0.178573 0.178573 
0.178573 0.178573 0.178573 0.178573 0.178573 0.178573 0.178573 0.178573 0.178573 
0.178573 0.178573 0.178573 0.178573 0.178573 0.178573 0.178573 0.178573 0.178573 
0.178573 0.178573 0.178573 0.178573 0.178573 0.178573 0.178573 0.178573 0.178573 
0.178573 0.178573 0.178573 0.178573 0.178573 0.178573 0.178573 0.178573 0.178573 
0.178573 0.178573 0.178573 0.178573 0.178573 0.178573 0.178573 0.178573 0.178573 
0.178573 0.178573 0.178573 0.178573 0.178573 0.178573 0.178573 0.178573 0.178573 
0.178573 0.178573 0.178573 0.178573 0.178573 0.178573 0.178573 0.178573 0.178573 
0.178573 0.178573 0.178573 0.178573 0.178573 0.178573 0.178573 0.178573 0.178573 
0.178573 0.178573 0.178573 0.178573 0.178573 0.178573 0.178573 0.178573 0.178573 
0.178573 0.178573 0.178573 0.178573 0.178573 0.178573 0.178573 0.178573 0.178573 
0.178573 0.178573 0.178573 0.178573 0.178573 0.178573 0.178573 0.178573 0.178573 
0.178573 0.178573 0.178573 0.178573 0.178573 0.178573 0.178573 0.178573 0.178573 
0.178573 0.178573 0.178573 0.178573 0.178573 0.178573 0.178573 0.178573 0.178573 
0.178573 0.178573 0.178573 0.178573 0.178573 0.178573 0.178573 0.178573 0.178573 
0.178573 0.178573 0.178573 0.178573 0.178573 0.178573 0.178573 0.178573 0.178573 
0.178573 0.178573 0.178573 0.178573 0.178573 0.178573 0.178573 0.178573 0.178573 
0.178573 0.178573 0.178573 0.178573 0.178573 0.178573 0.178573 0.178573 0.178573 
0.178573 0.178573 0.178573 0.178573 0.178573 0.178573 0.178573 0.178573 0.178573 
0.178573 0.178573 0.178573 0.178573 0.178573 0.178573 0.178573 0.178573 0.178573 
0.178573 0.178573 0.178573 0.178573 0.178573 0.178573 0.178573 0.178573 0.178573 
0.178573 0.178573 0.178573 0.178573 0.178573 0.178573 0.178573 0.178573 0.178573 
0.178573 0.178573 0.178573 0.178573 0.178573 0.178573 0.178573 0.178573 0.178573 
0.178573 0.178573 0.178573 0.178573 0.178573 0.178573 0.178573 0.178573 0.178573 
0.178573 0.178573 0.178573 0.178573 0.178573 0.178573 0.178573 0.178573 0.178573 
0.178573 0.178573 0.178573 0.178573 0.178573 0.178573 0.178573 0.178573 0.178573 
0.178573 0.178573 0.178573 0.178573 0.178573 0.178573 0.178573 0.178573 0.178573 
0.178573 0.178573 0.178573 0.178573 0.178573 0.178573 0.178573 0.178573 0.178573 
0.178573 0.178573 0.178573 0.178573 0.178573 0.178573 0.178573 0.178573 0.178573 
0.178573 0.178573 0.178573 0.178573 0.178573 0.178573 0.178573 0.178573 0.178573 
0.178573 0.178573 0.178573 0.178573 0.178573 0.178573 0.178573 0.178573 0.178573 
0.178573 0.178573 0.178573 0.178573 0.178573 0.178573 0.178573 0.178573 0.178573 
0.178573 0.178573 0.178573 0.178573 0.178573 0.178573 0.178573 0.178573 0.178573 
0.178573 0.178573 0.178573 0.178573 0.178573 0.178573 0.178573 0.178573 0.178573 
0.178573 0.178573 0.178573 0.178573 0.178573 0.178573 0.178573 0.178573 0.178573 
0.178573 0.178573 0.178573 0.178573 0.178573 0.178573 0.178573 0.178573 0.178573 
0.178573 0.178573 0.178573 0.178573 0.178573 0.178573 0.178573 0.178573 0.178573 
0.178573 0.178573 0.178573 0.178573 0.178573 0.178573 0.178573 0.178573 0.178573 
0.178573 0.178573 0.178573 0.178573 0.178573 0.178573 0.178573 0.178573 0.178573 
0.178573 0.178573 0.178573 0.178573 0.178573 0.178573 0.178573 0.178573 0.178573 
0.178573 0.178573 0.178573 0.178573 0.178573 0.178573 0.178573 0.178573 0.178573 
0.178573 0.178573 0.178573 0.178573 0.178573 0.178573 0.178573 0.178573 0.178573 
0.178573 0.178573 0.178573 0.178573 0.178573 0.178573 0.178573 0.178573 0.178573 
0.178573 0.178573 0.178573 0.178573 0.178573 0.178573 0.178573 0.178573 0.178573 
0.178573 0.178573 0.178573 0.178573 0.178573 0.178573 0.178573 0.178573 0.178573 
0.178573 0.178573 0.178573 0.178573 0.178573 0.178573 0.178573 0.178573 0.178573 
0.178573 0.178573 0.178573 0.178573 0.178573 0.178573 0.178573 0.178573 0.178573 
0.178573 0.178573 0.178573 0.178573 0.178573 0.178573 0.178573 0.178573 0.178573 
0.178573 0.178573 0.178573 0.178573 0.178573 0.178573 0.178573 0.178573 0.178573 
0.178573 0.178573 0.178573 0.178573 0.178573 0.178573 0.178573 0.178573 0.178573 
0.178573 0.178573 0.178573 0.178573 0.178573 0.178573 0.178573 0.178573 0.178573 
0.178573 0.178573 0.178573 0.178573 0.178573 0.178573 0.178573 0.178573 0.178573 
0.178573 0.178573 0.178573 0.178573 0.178573 0.178573 0.178573 0.178573 0.178573 
0.178573 0.178573 0.178573 0.178573 0.178573 0.178573 0.178573 0.178573 0.178573 
0.178573 0.178573 0.178573 0.178573 0.178573 0.178573 0.178573 0.178573 0.178573 
0.178573 0.178573 0.178573 0.178573 0.178573 0.178573 0.178573 0.178573 0.178573 
0.178573 0.178573 0.178573 0.178573 0.178573 0.178573 0.178573 0.178573 0.178573 
0.178573 0.178573 0.178573 0.178573 0.178573 0.178573 0.178573 0.178573 0.178573 
0.178573 0.178573 0.178573 0.178573 0.178573 0.178573 0.178573 0.178573 0.178573 
0.178573 0.178573 0.178573 0.178573 0.178573 0.178573 0.178573 0.178573 0.178573 
0.178573 0.178573 0.178573 0.178573 0.178573 0.178573 0.178573 0.178573 0.178573 
0.178573 0.178573 0.178573 0.178573 0.178573 0.178573 0.178573 0.178573 0.178573 
0.178573 0.178573 0.178573 0.178573 0.178573 0.178573 0.178573 0.178573 0.178573 
0.178573 0.178573 0.178573 0.178573 0.178573 0.178573 0.178573 0.178573 0.178573 
0.178573 0.178573 0.178573 0.178573 0.178573 0.178573 0.178573 0.178573 0.178573 
0.178573 0.178573 0.178573 0.178573 0.178573 0.178573 0.178573 0.178573 0.178573 
0.178573 0.178573 0.178573 0.178573 0.178573 0.178573 0.178573 0.178573 0.178573 
0.178573 0.178573 0.178573 0.178573 0.178573 0.178573 0.178573 0.178573 0.178573 
0.178573 0.178573 0.178573 0.178573 0.178573 0.178573 0.178573 0.178573 0.178573 
0.178573 0.178573 0.178573 0.178573 0.178573 0.178573 0.178573 0.178573 0.178573 
0.178573 0.178573 0.178573 0.178573 0.178573 0.178573 0.178573 0.178573 0.178573 
0.178573 0.178573 0.178573 0.178573 0.178573 0.178573 0.178573 0.178573 0.178573 
0.178573 0.178573 0.178573 0.178573 0.178573 0.178573 0.178573 0.178573 0.178573 