# vtk DataFile Version 5.1
vtk output
ASCII
DATASET STRUCTURED_GRID
DIMENSIONS 28 32 13
POINTS 11648 float
3.36229 0.665763 0.5 3.3623 0.691522 0.5 3.3623 0.717859 0.5 
3.36231 0.744493 0.5 3.36231 0.771126 0.5 3.36231 0.797464 0.5 
3.36232 0.823223 0.5 3.36232 0.848145 0.5 3.36233 0.872007 0.5 
3.36233 0.894626 0.5 3.36233 0.915866 0.5 3.36234 0.935632 0.5 
3.36234 0.953877 0.5 3.36234 0.970588 0.5 3.36234 0.985789 0.5 
3.36235 0.999528 0.5 3.36235 1.01188 0.5 3.36235 1.02291 0.5 
3.36235 1.03274 0.5 3.36235 1.04144 0.5 3.36235 1.04913 0.5 
3.36235 1.0559 0.5 3.36235 1.06184 0.5 3.36236 1.06704 0.5 
3.36236 1.07159 0.5 3.36236 1.07555 0.5 3.36236 1.079 0.5 
3.36236 1.082 0.5 3.39351 0.664562 0.5 3.39352 0.690412 0.5 
3.39352 0.716844 0.5 3.39352 0.743574 0.5 3.39353 0.770303 0.5 
3.39353 0.796735 0.5 3.39353 0.822585 0.5 3.39353 0.847594 0.5 
3.39354 0.871536 0.5 3.39354 0.894229 0.5 3.39354 0.915534 0.5 
3.39355 0.93536 0.5 3.39355 0.953655 0.5 3.39355 0.970411 0.5 
3.39355 0.985649 0.5 3.39355 0.99942 0.5 3.39355 1.01179 0.5 
3.39356 1.02285 0.5 3.39356 1.03269 0.5 3.39356 1.04141 0.5 
3.39356 1.04911 0.5 3.39356 1.05588 0.5 3.39356 1.06183 0.5 
3.39356 1.06704 0.5 3.39356 1.07158 0.5 3.39356 1.07555 0.5 
3.39356 1.079 0.5 3.39356 1.082 0.5 3.42521 0.663343 0.5 
3.42521 0.689285 0.5 3.42521 0.715813 0.5 3.42521 0.74264 0.5 
3.42522 0.769467 0.5 3.42522 0.795995 0.5 3.42522 0.821938 0.5 
3.42522 0.847034 0.5 3.42522 0.871057 0.5 3.42522 0.893825 0.5 
3.42523 0.915197 0.5 3.42523 0.935083 0.5 3.42523 0.953431 0.5 
3.42523 0.970231 0.5 3.42523 0.985507 0.5 3.42523 0.99931 0.5 
3.42523 1.01171 0.5 3.42523 1.02279 0.5 3.42523 1.03265 0.5 
3.42523 1.04138 0.5 3.42524 1.04909 0.5 3.42524 1.05587 0.5 
3.42524 1.06182 0.5 3.42524 1.06703 0.5 3.42524 1.07158 0.5 
3.42524 1.07555 0.5 3.42524 1.079 0.5 3.42524 1.082 0.5 
3.45737 0.662106 0.5 3.45737 0.688142 0.5 3.45737 0.714767 0.5 
3.45737 0.741693 0.5 3.45737 0.76862 0.5 3.45737 0.795245 0.5 
3.45737 0.821281 0.5 3.45737 0.846465 0.5 3.45737 0.870572 0.5 
3.45737 0.893415 0.5 3.45737 0.914856 0.5 3.45737 0.934802 0.5 
3.45737 0.953203 0.5 3.45738 0.970049 0.5 3.45738 0.985364 0.5 
3.45738 0.999198 0.5 3.45738 1.01162 0.5 3.45738 1.02272 0.5 
3.45738 1.0326 0.5 3.45738 1.04135 0.5 3.45738 1.04906 0.5 
3.45738 1.05586 0.5 3.45738 1.06181 0.5 3.45738 1.06703 0.5 
3.45738 1.07158 0.5 3.45738 1.07555 0.5 3.45738 1.079 0.5 
3.45738 1.082 0.5 3.48998 0.660851 0.5 3.48998 0.686983 0.5 
3.48998 0.713706 0.5 3.48998 0.740733 0.5 3.48998 0.767759 0.5 
3.48998 0.794483 0.5 3.48998 0.820614 0.5 3.48998 0.845889 0.5 
3.48998 0.870079 0.5 3.48998 0.893 0.5 3.48998 0.91451 0.5 
3.48998 0.934517 0.5 3.48998 0.952971 0.5 3.48998 0.969864 0.5 
3.48998 0.985218 0.5 3.48998 0.999085 0.5 3.48998 1.01154 0.5 
3.48998 1.02266 0.5 3.48998 1.03255 0.5 3.48998 1.04131 0.5 
3.48998 1.04904 0.5 3.48998 1.05584 0.5 3.48998 1.0618 0.5 
3.48998 1.06702 0.5 3.48998 1.07158 0.5 3.48998 1.07555 0.5 
3.48998 1.079 0.5 3.48998 1.082 0.5 3.52305 0.659579 0.5 
3.52305 0.685807 0.5 3.52305 0.71263 0.5 3.52305 0.739759 0.5 
3.52305 0.766887 0.5 3.52304 0.793711 0.5 3.52304 0.819938 0.5 
3.52304 0.845305 0.5 3.52304 0.86958 0.5 3.52304 0.892578 0.5 
3.52304 0.914159 0.5 3.52304 0.934228 0.5 3.52304 0.952737 0.5 
3.52303 0.969676 0.5 3.52303 0.98507 0.5 3.52303 0.99897 0.5 
3.52303 1.01145 0.5 3.52303 1.0226 0.5 3.52303 1.03251 0.5 
3.52303 1.04128 0.5 3.52303 1.04902 0.5 3.52303 1.05583 0.5 
3.52303 1.0618 0.5 3.52303 1.06702 0.5 3.52303 1.07158 0.5 
3.52303 1.07555 0.5 3.52303 1.079 0.5 3.52303 1.082 0.5 
3.55656 0.65829 0.5 3.55656 0.684616 0.5 3.55656 0.711541 0.5 
3.55655 0.738772 0.5 3.55655 0.766004 0.5 3.55655 0.792929 0.5 
3.55655 0.819254 0.5 3.55654 0.844713 0.5 3.55654 0.869074 0.5 
3.55654 0.892151 0.5 3.55654 0.913803 0.5 3.55654 0.933935 0.5 
3.55653 0.952499 0.5 3.55653 0.969486 0.5 3.55653 0.98492 0.5 
3.55653 0.998854 0.5 3.55653 1.01136 0.5 3.55653 1.02253 0.5 
3.55653 1.03246 0.5 3.55653 1.04124 0.5 3.55653 1.049 0.5 
3.55652 1.05581 0.5 3.55652 1.06179 0.5 3.55652 1.06701 0.5 
3.55652 1.07157 0.5 3.55652 1.07554 0.5 3.55652 1.079 0.5 
3.55652 1.082 0.5 3.59051 0.656985 0.5 3.5905 0.683409 0.5 
3.5905 0.710436 0.5 3.5905 0.737773 0.5 3.59049 0.765108 0.5 
3.59049 0.792136 0.5 3.59048 0.81856 0.5 3.59048 0.844113 0.5 
3.59048 0.868562 0.5 3.59048 0.891719 0.5 3.59047 0.913442 0.5 
3.59047 0.933639 0.5 3.59047 0.952259 0.5 3.59046 0.969293 0.5 
3.59046 0.984768 0.5 3.59046 0.998736 0.5 3.59046 1.01127 0.5 
3.59046 1.02246 0.5 3.59046 1.03241 0.5 3.59045 1.04121 0.5 
3.59045 1.04897 0.5 3.59045 1.0558 0.5 3.59045 1.06178 0.5 
3.59045 1.06701 0.5 3.59045 1.07157 0.5 3.59045 1.07554 0.5 
3.59045 1.079 0.5 3.59045 1.082 0.5 3.62487 0.655663 0.5 
3.62487 0.682187 0.5 3.62487 0.709318 0.5 3.62486 0.73676 0.5 
3.62486 0.764202 0.5 3.62485 0.791334 0.5 3.62485 0.817858 0.5 
3.62484 0.843506 0.5 3.62484 0.868043 0.5 3.62483 0.891281 0.5 
3.62483 0.913078 0.5 3.62483 0.933338 0.5 3.62482 0.952015 0.5 
3.62482 0.969098 0.5 3.62482 0.984614 0.5 3.62481 0.998616 0.5 
3.62481 1.01118 0.5 3.62481 1.0224 0.5 3.62481 1.03236 0.5 
3.62481 1.04118 0.5 3.6248 1.04895 0.5 3.6248 1.05578 0.5 
3.6248 1.06177 0.5 3.6248 1.067 0.5 3.6248 1.07157 0.5 
3.6248 1.07554 0.5 3.6248 1.079 0.5 3.6248 1.082 0.5 
3.65966 0.654325 0.5 3.65965 0.680951 0.5 3.65965 0.708187 0.5 
3.65964 0.735736 0.5 3.65963 0.763285 0.5 3.65963 0.790521 0.5 
3.65962 0.817147 0.5 3.65962 0.842891 0.5 3.65961 0.867518 0.5 
3.65961 0.890838 0.5 3.6596 0.912708 0.5 3.6596 0.933035 0.5 
3.65959 0.951768 0.5 3.65959 0.968901 0.5 3.65958 0.984458 0.5 
3.65958 0.998496 0.5 3.65958 1.01109 0.5 3.65958 1.02233 0.5 
3.65957 1.03231 0.5 3.65957 1.04114 0.5 3.65957 1.04893 0.5 
3.65957 1.05577 0.5 3.65957 1.06176 0.5 3.65957 1.067 0.5 
3.65957 1.07157 0.5 3.65957 1.07554 0.5 3.65956 1.079 0.5 
3.65956 1.082 0.5 3.69484 0.652972 0.5 3.69483 0.6797 0.5 
3.69483 0.707043 0.5 3.69482 0.7347 0.5 3.69481 0.762357 0.5 
3.69481 0.7897 0.5 3.6948 0.816428 0.5 3.69479 0.842269 0.5 
3.69479 0.866987 0.5 3.69478 0.89039 0.5 3.69477 0.912335 0.5 
3.69477 0.932727 0.5 3.69476 0.951519 0.5 3.69476 0.968701 0.5 
3.69475 0.984301 0.5 3.69475 0.998373 0.5 3.69475 1.011 0.5 
3.69475 1.02226 0.5 3.69474 1.03226 0.5 3.69474 1.0411 0.5 
3.69474 1.0489 0.5 3.69474 1.05575 0.5 3.69474 1.06175 0.5 
3.69473 1.06699 0.5 3.69473 1.07156 0.5 3.69473 1.07554 0.5 
3.69473 1.079 0.5 3.69473 1.082 0.5 3.73042 0.651603 0.5 
3.73041 0.678435 0.5 3.7304 0.705886 0.5 3.73039 0.733652 0.5 
3.73038 0.761419 0.5 3.73038 0.78887 0.5 3.73037 0.815702 0.5 
3.73036 0.841641 0.5 3.73035 0.86645 0.5 3.73034 0.889936 0.5 
3.73034 0.911957 0.5 3.73033 0.932417 0.5 3.73033 0.951267 0.5 
3.73032 0.968499 0.5 3.73032 0.984141 0.5 3.73031 0.99825 0.5 
3.73031 1.0109 0.5 3.7303 1.02219 0.5 3.7303 1.03221 0.5 
3.7303 1.04107 0.5 3.7303 1.04888 0.5 3.73029 1.05573 0.5 
3.73029 1.06174 0.5 3.73029 1.06699 0.5 3.73029 1.07156 0.5 
3.73029 1.07554 0.5 3.73029 1.079 0.5 3.73029 1.082 0.5 
3.76637 0.65022 0.5 3.76636 0.677157 0.5 3.76635 0.704717 0.5 
3.76634 0.732594 0.5 3.76633 0.760471 0.5 3.76632 0.78803 0.5 
3.76631 0.814967 0.5 3.7663 0.841005 0.5 3.76629 0.865907 0.5 
3.76629 0.889478 0.5 3.76628 0.911575 0.5 3.76627 0.932103 0.5 
3.76627 0.951011 0.5 3.76626 0.968295 0.5 3.76626 0.983981 0.5 
3.76625 0.998125 0.5 3.76625 1.01081 0.5 3.76624 1.02212 0.5 
3.76624 1.03216 0.5 3.76624 1.04103 0.5 3.76623 1.04885 0.5 
3.76623 1.05572 0.5 3.76623 1.06173 0.5 3.76623 1.06698 0.5 
3.76623 1.07156 0.5 3.76622 1.07554 0.5 3.76622 1.079 0.5 
3.76622 1.082 0.5 3.80268 0.648824 0.5 3.80267 0.675867 0.5 
3.80266 0.703535 0.5 3.80265 0.731524 0.5 3.80264 0.759513 0.5 
3.80263 0.787182 0.5 3.80262 0.814225 0.5 3.80261 0.840364 0.5 
3.8026 0.865359 0.5 3.80259 0.889016 0.5 3.80259 0.91119 0.5 
3.80258 0.931785 0.5 3.80257 0.950754 0.5 3.80257 0.968089 0.5 
3.80256 0.983818 0.5 3.80255 0.997999 0.5 3.80255 1.01071 0.5 
3.80254 1.02204 0.5 3.80254 1.0321 0.5 3.80254 1.041 0.5 
3.80254 1.04883 0.5 3.80253 1.0557 0.5 3.80253 1.06172 0.5 
3.80253 1.06698 0.5 3.80253 1.07156 0.5 3.80253 1.07554 0.5 
3.80252 1.079 0.5 3.80252 1.082 0.5 3.83935 0.647413 0.5 
3.83934 0.674563 0.5 3.83933 0.702343 0.5 3.83932 0.730445 0.5 
3.83931 0.758547 0.5 3.83929 0.786326 0.5 3.83928 0.813476 0.5 
3.83927 0.839716 0.5 3.83926 0.864805 0.5 3.83925 0.888549 0.5 
3.83924 0.9108 0.5 3.83924 0.931465 0.5 3.83923 0.950494 0.5 
3.83922 0.967881 0.5 3.83922 0.983654 0.5 3.83921 0.997872 0.5 
3.8392 1.01061 0.5 3.8392 1.02197 0.5 3.8392 1.03205 0.5 
3.83919 1.04096 0.5 3.83919 1.0488 0.5 3.83919 1.05568 0.5 
3.83918 1.06171 0.5 3.83918 1.06697 0.5 3.83918 1.07155 0.5 
3.83918 1.07554 0.5 3.83918 1.079 0.5 3.83917 1.082 0.5 
3.87635 0.64599 0.5 3.87634 0.673248 0.5 3.87633 0.70114 0.5 
3.87632 0.729355 0.5 3.8763 0.757571 0.5 3.87629 0.785463 0.5 
3.87628 0.81272 0.5 3.87627 0.839062 0.5 3.87626 0.864247 0.5 
3.87625 0.888077 0.5 3.87624 0.910408 0.5 3.87623 0.931142 0.5 
3.87622 0.950232 0.5 3.87621 0.967671 0.5 3.87621 0.983489 0.5 
3.8762 0.997744 0.5 3.8762 1.01051 0.5 3.87619 1.0219 0.5 
3.87619 1.032 0.5 3.87618 1.04092 0.5 3.87618 1.04878 0.5 
3.87618 1.05567 0.5 3.87617 1.0617 0.5 3.87617 1.06696 0.5 
3.87617 1.07155 0.5 3.87617 1.07554 0.5 3.87617 1.079 0.5 
3.87616 1.082 0.5 3.91368 0.644555 0.5 3.91366 0.671921 0.5 
3.91365 0.699926 0.5 3.91364 0.728256 0.5 3.91362 0.756587 0.5 
3.91361 0.784591 0.5 3.9136 0.811958 0.5 3.91359 0.838403 0.5 
3.91358 0.863683 0.5 3.91356 0.887602 0.5 3.91355 0.910011 0.5 
3.91355 0.930816 0.5 3.91354 0.949967 0.5 3.91353 0.967459 0.5 
3.91352 0.983322 0.5 3.91351 0.997614 0.5 3.91351 1.01042 0.5 
3.9135 1.02182 0.5 3.9135 1.03194 0.5 3.91349 1.04088 0.5 
3.91349 1.04875 0.5 3.91349 1.05565 0.5 3.91349 1.06169 0.5 
3.91348 1.06696 0.5 3.91348 1.07155 0.5 3.91348 1.07554 0.5 
3.91348 1.079 0.5 3.91348 1.082 0.5 3.9513 0.643108 0.5 
3.95129 0.670584 0.5 3.95128 0.698702 0.5 3.95126 0.727148 0.5 
[...]
POINT_DATA 11648
FIELD FieldData 5
pressure 1 11648 float
0.288564 0.286506 0.282352 0.277345 0.274572 0.273202 0.273773 0.276974 0.280438 
0.28501 0.286643 0.285978 0.279905 0.2713 0.260096 0.247235 0.235895 0.223419 
0.214257 0.204602 0.198204 0.191798 0.187959 0.184277 0.182353 0.180412 0.179842 
0.179122 0.279518 0.278488 0.275898 0.272421 0.270472 0.27085 0.272106 0.273231 
0.274861 0.275915 0.274966 0.270842 0.264049 0.255658 0.245545 0.235363 0.225095 
0.215822 0.207623 0.200913 0.1954 0.191208 0.187912 0.185635 0.183871 0.182819 
0.18214 0.182 0.272391 0.272475 0.270508 0.267792 0.264544 0.263618 0.264664 
0.266337 0.268351 0.270515 0.271644 0.270657 0.267112 0.261825 0.254892 0.247072 
0.238788 0.230473 0.223027 0.216131 0.210589 0.205612 0.202081 0.198769 0.196946 
0.194746 0.194327 0.193488 0.265848 0.266359 0.264472 0.262331 0.258653 0.256523 
0.257158 0.259064 0.260859 0.262965 0.264639 0.265609 0.264841 0.262396 0.258516 
0.253417 0.247592 0.242003 0.236052 0.231406 0.226236 0.222806 0.21856 0.216443 
0.213066 0.212169 0.21031 0.21035 0.259331 0.259997 0.25798 0.256409 0.252866 
0.248682 0.247228 0.248647 0.250894 0.252864 0.255165 0.257036 0.258114 0.258 
0.256639 0.254411 0.251724 0.248644 0.246306 0.242714 0.240874 0.236819 0.235552 
0.231651 0.231046 0.227756 0.227908 0.22658 0.252813 0.253292 0.251287 0.250028 
0.246356 0.241876 0.238869 0.238756 0.240678 0.243462 0.246158 0.248856 0.251404 
0.252797 0.254003 0.254056 0.25454 0.254316 0.253949 0.253645 0.251702 0.251283 
0.248218 0.248156 0.244895 0.245351 0.243673 0.244274 0.246364 0.246598 0.244368 
0.243159 0.24035 0.237151 0.234231 0.231579 0.233205 0.236399 0.240196 0.243939 
0.247208 0.250843 0.253055 0.256242 0.257926 0.26058 0.26221 0.263248 0.263804 
0.262733 0.262886 0.260621 0.261139 0.258912 0.259618 0.259403 0.240052 0.240108 
0.237646 0.236525 0.234876 0.233408 0.230162 0.22743 0.228161 0.231737 0.236341 
0.240947 0.245665 0.249935 0.254648 0.258745 0.263164 0.267004 0.270747 0.273535 
0.275013 0.27588 0.275402 0.276023 0.274542 0.275547 0.274983 0.27602 0.233746 
0.233807 0.231365 0.230175 0.229093 0.228249 0.226132 0.224266 0.22453 0.227104 
0.232481 0.238266 0.244171 0.249848 0.256112 0.262038 0.268257 0.274051 0.27959 
0.284041 0.286852 0.288527 0.289644 0.289599 0.290508 0.289841 0.290401 0.291614 
0.22749 0.227582 0.225228 0.223985 0.223151 0.222798 0.222063 0.221343 0.220608 
0.222364 0.227574 0.234666 0.24195 0.249592 0.256636 0.264844 0.272267 0.280542 
0.28763 0.293774 0.298387 0.300909 0.302735 0.304032 0.304205 0.305222 0.306014 
0.307061 0.221375 0.221251 0.219464 0.218421 0.217747 0.217651 0.217399 0.217157 
0.21691 0.218216 0.222722 0.229811 0.238837 0.24759 0.25693 0.265875 0.27599 
0.285042 0.294894 0.302778 0.308437 0.312744 0.315138 0.316876 0.318038 0.318743 
0.31898 0.321619 0.215531 0.215162 0.213807 0.213371 0.212852 0.21268 0.212781 
0.213641 0.214752 0.216733 0.219891 0.226236 0.234641 0.245078 0.255187 0.266528 
0.276942 0.28915 0.299425 0.309512 0.317303 0.321912 0.325865 0.328063 0.329594 
0.330632 0.332515 0.33388 0.209738 0.209438 0.208418 0.208543 0.208314 0.208258 
0.20923 0.211374 0.213531 0.215448 0.218611 0.223407 0.231215 0.240559 0.252375 
0.264367 0.277766 0.290145 0.303773 0.314904 0.323499 0.330404 0.334132 0.337688 
0.339209 0.341058 0.340962 0.344646 0.204538 0.204377 0.203484 0.204111 0.204336 
0.205011 0.20658 0.20919 0.211707 0.214378 0.217782 0.222941 0.229092 0.238659 
0.24958 0.263551 0.277504 0.293598 0.306976 0.319795 0.329643 0.33596 0.34127 
0.343821 0.34637 0.347234 0.349484 0.351049 0.199834 0.200005 0.199111 0.199847 
0.200865 0.202323 0.204162 0.206885 0.210388 0.214348 0.219127 0.223514 0.230321 
0.238441 0.24998 0.262909 0.278582 0.293166 0.308271 0.320091 0.329311 0.336171 
0.340262 0.343708 0.345401 0.347214 0.347264 0.350547 0.195375 0.195901 0.194877 
0.195771 0.197413 0.199773 0.202216 0.205422 0.209599 0.214436 0.219315 0.225293 
0.23184 0.240991 0.251096 0.263835 0.277039 0.29051 0.302338 0.312881 0.321062 
0.326557 0.331269 0.334025 0.336256 0.337651 0.338962 0.340836 0.191051 0.191765 
0.191022 0.191984 0.194214 0.197332 0.20092 0.204665 0.208853 0.213542 0.219518 
0.226156 0.234683 0.243464 0.25406 0.264713 0.275799 0.286593 0.296358 0.304328 
0.310866 0.315492 0.318694 0.321231 0.32295 0.324064 0.324801 0.326285 0.186918 
0.187805 0.18773 0.189012 0.191428 0.195227 0.199357 0.203597 0.207544 0.212812 
0.219307 0.228128 0.237514 0.247932 0.258098 0.267928 0.278264 0.286346 0.294202 
0.301001 0.304995 0.308327 0.30979 0.311403 0.312134 0.312879 0.313457 0.314326 
0.183049 0.184145 0.185089 0.186775 0.18938 0.193036 0.197537 0.201815 0.206922 
0.212729 0.221099 0.230669 0.241965 0.253118 0.263644 0.274105 0.282275 0.290202 
0.295465 0.298644 0.301231 0.301392 0.302547 0.302392 0.303147 0.303083 0.30344 
0.304217 0.179472 0.180937 0.182688 0.184997 0.187602 0.191161 0.195359 0.200566 
0.206312 0.21449 0.223647 0.235014 0.246888 0.25883 0.270452 0.280061 0.28858 
0.292461 0.294407 0.29572 0.294683 0.295301 0.294488 0.294981 0.294592 0.294932 
0.294998 0.295385 0.176058 0.177936 0.180425 0.183112 0.186023 0.189264 0.193863 
0.199128 0.207049 0.21594 0.227698 0.239784 0.252609 0.265228 0.276724 0.285646 
0.28908 0.290523 0.290438 0.288881 0.288741 0.28735 0.287673 0.286869 0.287227 
0.287128 0.287073 0.287633 0.172853 0.175202 0.178059 0.181259 0.184185 0.187962 
0.192303 0.199036 0.207384 0.219098 0.231512 0.245577 0.259021 0.271817 0.280802 
0.284696 0.285889 0.284747 0.282872 0.282062 0.280217 0.280188 0.279073 0.279263 
0.278926 0.27889 0.27904 0.278801 0.169863 0.17259 0.17578 0.179151 0.182719 
0.186444 0.192055 0.198918 0.209824 0.222166 0.237205 0.251939 0.266241 0.275648 
0.279552 0.280602 0.279126 0.277199 0.275678 0.273585 0.272976 0.271521 0.271523 
0.270863 0.270744 0.270942 0.270473 0.270816 0.167157 0.170274 0.173459 0.177297 
0.180907 0.185892 0.191706 0.201001 0.212563 0.227897 0.243715 0.259818 0.27047 
0.274561 0.27519 0.273526 0.271638 0.269555 0.267404 0.26624 0.264471 0.264195 
0.263314 0.263087 0.26306 0.262642 0.262759 0.262512 0.164672 0.168045 0.171452 
0.175175 0.179846 0.185064 0.193255 0.203305 0.218066 0.234254 0.251967 0.264524 
0.2698 0.270381 0.268285 0.266227 0.26388 0.261493 0.259923 0.257861 0.25718 
0.256116 0.255782 0.255562 0.255124 0.255335 0.255024 0.255114 0.162493 0.166238 
0.169459 0.173654 0.178472 0.185853 0.194821 0.208127 0.223762 0.242178 0.256712 
0.264311 0.265679 0.263756 0.261484 0.258796 0.2561 0.254075 0.251728 0.250497 
0.249192 0.248601 0.248217 0.247737 0.247777 0.247546 0.247543 0.247387 0.160466 
0.164438 0.167932 0.172039 0.178426 0.186476 0.198613 0.212895 0.230981 0.246661 
0.256816 0.260191 0.259191 0.257248 0.254559 0.251571 0.249104 0.246449 0.244787 
0.243035 0.24206 0.241471 0.240858 0.240766 0.240426 0.240567 0.240338 0.240416 
0.158604 0.163044 0.166328 0.171635 0.178588 0.189361 0.202558 0.219831 0.235983 
0.247886 0.252884 0.253143 0.251906 0.249932 0.247279 0.244686 0.24185 0.23997 
0.237893 0.236503 0.23563 0.234797 0.234517 0.234085 0.234047 0.233866 0.23384 
0.23378 0.156675 0.161526 0.165612 0.17141 0.180648 0.192281 0.208397 0.224966 
0.238835 0.245611 0.246928 0.245974 0.244447 0.24253 0.240377 0.237597 0.235716 
0.233487 0.23195 0.230687 0.229627 0.229106 0.228487 0.228358 0.228016 0.2281 
0.227918 0.228039 0.154767 0.160817 0.16523 0.173274 0.18327 0.197632 0.213807 
0.229274 0.238232 0.240863 0.240404 0.238614 0.236732 0.235175 0.233047 0.231549 
0.229562 0.228172 0.226884 0.225744 0.225104 0.224363 0.224148 0.223762 0.223741 
0.223574 0.223585 0.223631 0.153153 0.160233 0.166078 0.174963 0.187386 0.202179 
0.218639 0.230442 0.235412 0.235985 0.23401 0.231616 0.229765 0.227717 0.226367 
0.224469 0.223367 0.222178 0.221224 0.220611 0.219899 0.219753 0.219404 0.219467 
0.219283 0.219393 0.21931 0.219453 0.151833 0.161834 0.168302 0.180294 0.193647 
0.208616 0.220485 0.22822 0.231034 0.229567 0.2271 0.224494 0.22194 0.220397 
0.218661 0.218164 0.217587 0.217116 0.217163 0.217077 0.217342 0.217237 0.217428 
0.21731 0.217458 0.217404 0.217391 0.217434 0.288564 0.286506 0.282352 0.277345 
0.274572 0.273202 0.273773 0.276974 0.280438 0.28501 0.286643 0.285978 0.279905 
0.2713 0.260096 0.247235 0.235895 0.223419 0.214257 0.204602 0.198204 0.191798 
0.187959 0.184277 0.182353 0.180412 0.179842 0.179122 0.279518 0.278488 0.275898 
0.272421 0.270472 0.27085 0.272106 0.273231 0.274861 0.275915 0.274966 0.270842 
0.264049 0.255658 0.245545 0.235363 0.225095 0.215822 0.207623 0.200913 0.1954 
0.191208 0.187912 0.185635 0.183871 0.182819 0.18214 0.182 0.272391 0.272475 
0.270508 0.267792 0.264544 0.263618 0.264664 0.266337 0.268351 0.270515 0.271644 
0.270657 0.267112 0.261825 0.254892 0.247072 0.238788 0.230473 0.223027 0.216131 
0.210589 0.205612 0.202081 0.198769 0.196946 0.194746 0.194327 0.193488 0.265848 
0.266359 0.264472 0.262331 0.258653 0.256523 0.257158 0.259064 0.260859 0.262965 
0.264639 0.265609 0.264841 0.262396 0.258516 0.253417 0.247592 0.242003 0.236052 
0.231406 0.226236 0.222806 0.21856 0.216443 0.213066 0.212169 0.21031 0.21035 
0.259331 0.259997 0.25798 0.256409 0.252866 0.248682 0.247228 0.248647 0.250894 
0.252864 0.255165 0.257036 0.258114 0.258 0.256639 0.254411 0.251724 0.248644 
0.246306 0.242714 0.240874 0.236819 0.235552 0.231651 0.231046 0.227756 0.227908 
0.22658 0.252813 0.253292 0.251287 0.250028 0.246356 0.241876 0.238869 0.238756 
0.240678 0.243462 0.246158 0.248856 0.251404 0.252797 0.254003 0.254056 0.25454 
0.254316 0.253949 0.253645 0.251702 0.251283 0.248218 0.248156 0.244895 0.245351 
0.243673 0.244274 0.246364 0.246598 0.244368 0.243159 0.24035 0.237151 0.234231 
0.231579 0.233205 0.236399 0.240196 0.243939 0.247208 0.250843 0.253055 0.256242 
0.257926 0.26058 0.26221 0.263248 0.263804 0.262733 0.262886 0.260621 0.261139 
0.258912 0.259618 0.259403 0.240052 0.240108 0.237646 0.236525 0.234876 0.233408 
0.230162 0.22743 0.228161 0.231737 0.236341 0.240947 0.245665 0.249935 0.254648 
0.258745 0.263164 0.267004 0.270747 0.273535 0.275013 0.27588 0.275402 0.276023 
0.274542 0.275547 0.274983 0.27602 0.233746 0.233807 0.231365 0.230175 0.229093 
0.228249 0.226132 0.224266 0.22453 0.227104 0.232481 0.238266 0.244171 0.249848 
0.256112 0.262038 0.268257 0.274051 0.27959 0.284041 0.286852 0.288527 0.289644 
0.289599 0.290508 0.289841 0.290401 0.291614 0.22749 0.227582 0.225228 0.223985 
0.223151 0.222798 0.222063 0.221343 0.220608 0.222364 0.227574 0.234666 0.24195 
0.249592 0.256636 0.264844 0.272267 0.280542 0.28763 0.293774 0.298387 0.300909 
0.302735 0.304032 0.304205 0.305222 0.306014 0.307061 0.221375 0.221251 0.219464 
0.218421 0.217747 0.217651 0.217399 0.217157 0.21691 0.218216 0.222722 0.229811 
0.238837 0.24759 0.25693 0.265875 0.27599 0.285042 0.294894 0.302778 0.308437 
0.312744 0.315138 0.316876 0.318038 0.318743 0.31898 0.321619 0.215531 0.215162 
0.213807 0.213371 0.212852 0.21268 0.212781 0.213641 0.214752 0.216733 0.219891 
0.226236 0.234641 0.245078 0.255187 0.266528 0.276942 0.28915 0.299425 0.309512 
0.317303 0.321912 0.325865 0.328063 0.329594 0.330632 0.332515 0.33388 0.209738 
0.209438 0.208418 0.208543 0.208314 0.208258 0.20923 0.211374 0.213531 0.215448 
0.218611 0.223407 0.231215 0.240559 0.252375 0.264367 0.277766 0.290145 0.303773 
0.314904 0.323499 0.330404 0.334132 0.337688 0.339209 0.341058 0.340962 0.344646 
0.204538 0.204377 0.203484 0.204111 0.204336 0.205011 0.20658 0.20919 0.211707 
0.214378 0.217782 0.222941 0.229092 0.238659 0.24958 0.263551 0.277504 0.293598 
0.306976 0.319795 0.329643 0.33596 0.34127 0.343821 0.34637 0.347234 0.349484 
0.351049 0.199834 0.200005 0.199111 0.199847 0.200865 0.202323 0.204162 0.206885 
0.210388 0.214348 0.219127 0.223514 0.230321 0.238441 0.24998 0.262909 0.278582 
0.293166 0.308271 0.320091 0.329311 0.336171 0.340262 0.343708 0.345401 0.347214 
0.347264 0.350547 0.195375 0.195901 0.194877 0.195771 0.197413 0.199773 0.202216 
0.205422 0.209599 0.214436 0.219315 0.225293 0.23184 0.240991 0.251096 0.263835 
0.277039 0.29051 0.302338 0.312881 0.321062 0.326557 0.331269 0.334025 0.336256 
0.337651 0.338962 0.340836 0.191051 0.191765 0.191022 0.191984 0.194214 0.197332 
0.20092 0.204665 0.208853 0.213542 0.219518 0.226156 0.234683 0.243464 0.25406 
0.264713 0.275799 0.286593 0.296358 0.304328 0.310866 0.315492 0.318694 0.321231 
0.32295 0.324064 0.324801 0.326285 0.186918 0.187805 0.18773 0.189012 0.191428 
0.195227 0.199357 0.203597 0.207544 0.212812 0.219307 0.228128 0.237514 0.247932 
0.258098 0.267928 0.278264 0.286346 0.294202 0.301001 0.304995 0.308327 0.30979 
0.311403 0.312134 0.312879 0.313457 0.314326 0.183049 0.184145 0.185089 0.186775 
0.18938 0.193036 0.197537 0.201815 0.206922 0.212729 0.221099 0.230669 0.241965 
0.253118 0.263644 0.274105 0.282275 0.290202 0.295465 0.298644 0.301231 0.301392 
0.302547 0.302392 0.303147 0.303083 0.30344 0.304217 0.179472 0.180937 0.182688 
0.184997 0.187602 0.191161 0.195359 0.200566 0.206312 0.21449 0.223647 0.235014 
0.246888 0.25883 0.270452 0.280061 0.28858 0.292461 0.294407 0.29572 0.294683 
0.295301 0.294488 0.294981 0.294592 0.294932 0.294998 0.295385 0.176058 0.177936 
0.180425 0.183112 0.186023 0.189264 0.193863 0.199128 0.207049 0.21594 0.227698 
0.239784 0.252609 0.265228 0.276724 0.285646 0.28908 0.290523 0.290438 0.288881 
0.288741 0.28735 0.287673 0.286869 0.287227 0.287128 0.287073 0.287633 0.172853 
0.175202 0.178059 0.181259 0.184185 0.187962 0.192303 0.199036 0.207384 0.219098 
0.231512 0.245577 0.259021 0.271817 0.280802 0.284696 0.285889 0.284747 0.282872 
0.282062 0.280217 0.280188 0.279073 0.279263 0.278926 0.27889 0.27904 0.278801 
0.169863 0.17259 0.17578 0.179151 0.182719 0.186444 0.192055 0.198918 0.209824 
0.222166 0.237205 0.251939 0.266241 0.275648 0.279552 0.280602 0.279126 0.277199 
0.275678 0.273585 0.272976 0.271521 0.271523 0.270863 0.270744 0.270942 0.270473 
0.270816 0.167157 0.170274 0.173459 0.177297 0.180907 0.185892 0.191706 0.201001 
0.212563 0.227897 0.243715 0.259818 0.27047 0.274561 0.27519 0.273526 0.271638 
0.269555 0.267404 0.26624 0.264471 0.264195 0.263314 0.263087 0.26306 0.262642 
0.262759 0.262512 0.164672 0.168045 0.171452 0.175175 0.179846 0.185064 0.193255 
0.203305 0.218066 0.234254 0.251967 0.264524 0.2698 0.270381 0.268285 0.266227 
0.26388 0.261493 0.259923 0.257861 0.25718 0.256116 0.255782 0.255562 0.255124 
0.255335 0.255024 0.255114 0.162493 0.166238 0.169459 0.173654 0.178472 0.185853 
0.194821 0.208127 0.223762 0.242178 0.256712 0.264311 0.265679 0.263756 0.261484 
0.258796 0.2561 0.254075 0.251728 0.250497 0.249192 0.248601 0.248217 0.247737 
0.247777 0.247546 0.247543 0.247387 0.160466 0.164438 0.167932 0.172039 0.178426 
0.186476 0.198613 0.212895 0.230981 0.246661 0.256816 0.260191 0.259191 0.257248 
0.254559 0.251571 0.249104 0.246449 0.244787 0.243035 0.24206 0.241471 0.240858 
0.240766 0.240426 0.240567 0.240338 0.240416 0.158604 0.163044 0.166328 0.171635 
0.178588 0.189361 0.202558 0.219831 0.235983 0.247886 0.252884 0.253143 0.251906 
0.249932 0.247279 0.244686 0.24185 0.23997 0.237893 0.236503 0.23563 0.234797 
0.234517 0.234085 0.234047 0.233866 0.23384 0.23378 0.156675 0.161526 0.165612 
0.17141 0.180648 0.192281 0.208397 0.224966 0.238835 0.245611 0.246928 0.245974 
0.244447 0.24253 0.240377 0.237597 0.235716 0.233487 0.23195 0.230687 0.229627 
0.229106 0.228487 0.228358 0.228016 0.2281 0.227918 0.228039 0.154767 0.160817 
0.16523 0.173274 0.18327 0.197632 0.213807 0.229274 0.238232 0.240863 0.240404 
0.238614 0.236732 0.235175 0.233047 0.231549 0.229562 0.228172 0.226884 0.225744 
0.225104 0.224363 0.224148 0.223762 0.223741 0.223574 0.223585 0.223631 0.153153 
0.160233 0.166078 0.174963 0.187386 0.202179 0.218639 0.230442 0.235412 0.235985 
0.23401 0.231616 0.229765 0.227717 0.226367 0.224469 0.223367 0.222178 0.221224 
0.220611 0.219899 0.219753 0.219404 0.219467 0.219283 0.219393 0.21931 0.219453 
0.151833 0.161834 0.168302 0.180294 0.193647 0.208616 0.220485 0.22822 0.231034 
0.229567 0.2271 0.224494 0.22194 0.220397 0.218661 0.218164 0.217587 0.217116 
0.217163 0.217077 0.217342 0.217237 0.217428 0.21731 0.217458 0.217404 0.217391 
0.217434 0.288547 0.28653 0.282332 0.277663 0.274895 0.273713 0.273836 0.276323 
0.280377 0.283611 0.285531 0.28341 0.279146 0.269984 0.26017 0.248289 0.236266 
0.225037 0.214425 0.205849 0.198057 0.19259 0.187655 0.184689 0.181962 0.180638 
0.179532 0.179203 0.279456 0.278327 0.275751 0.272422 0.270786 0.271213 0.272174 
0.273167 0.274441 0.27486 0.273735 0.269589 0.263583 0.255358 0.245764 0.235386 
0.225151 0.215725 0.207549 0.200717 0.195267 0.190967 0.187778 0.185359 0.183755 
0.182502 0.18199 0.18169 0.27228 0.27229 0.270405 0.267731 0.264753 0.263915 
0.264806 0.266365 0.268252 0.270191 0.270923 0.269786 0.266561 0.261397 0.254792 
0.247192 0.23877 0.230661 0.222895 0.216225 0.210363 0.205733 0.201782 0.199032 
0.196585 0.195271 0.194145 0.193946 0.265744 0.266258 0.264351 0.262216 0.258735 
0.25683 0.257397 0.259182 0.260916 0.262832 0.264346 0.265113 0.264246 0.262061 
0.258198 0.253341 0.247783 0.241959 0.236527 0.231298 0.226853 0.222674 0.219569 
0.216294 0.214474 0.211968 0.211371 0.210332 0.259266 0.2599 0.257876 0.256297 
0.252801 0.248909 0.247627 0.248995 0.251075 0.252976 0.255009 0.256845 0.257749 
0.257522 0.256342 0.254042 0.251673 0.248949 0.246376 0.243904 0.241043 0.238837 
0.235779 0.234092 0.231178 0.230301 0.228677 0.228583 0.252729 0.253239 0.251139 
0.249937 0.246349 0.241892 0.239162 0.23912 0.241153 0.243601 0.246227 0.248684 
0.25094 0.252419 0.253096 0.253769 0.253635 0.254418 0.253982 0.254161 0.253143 
0.251925 0.251011 0.248743 0.248133 0.245846 0.245602 0.24485 0.24628 0.246544 
0.244225 0.243056 0.240291 0.237213 0.23423 0.232023 0.233337 0.236827 0.240129 
0.243707 0.246879 0.249666 0.252528 0.254458 0.257817 0.259329 0.262714 0.263236 
0.264527 0.264321 0.263507 0.263438 0.261539 0.261762 0.260738 0.261313 0.239955 
0.240043 0.237478 0.236394 0.234764 0.233351 0.230295 0.227487 0.228629 0.231765 
0.23637 0.2407 0.244949 0.249491 0.253261 0.258395 0.261792 0.267328 0.270353 
0.274205 0.27523 0.276502 0.276926 0.276416 0.276858 0.275948 0.276087 0.276742 
0.233676 0.233841 0.231146 0.229979 0.228976 0.228158 0.226009 0.224402 0.224662 
0.22736 0.232442 0.238039 0.243992 0.249403 0.255861 0.261047 0.26825 0.273791 
0.280191 0.283685 0.287399 0.288629 0.290006 0.290788 0.290647 0.291264 0.29152 
0.292559 0.227435 0.227562 0.225037 0.223791 0.222959 0.222646 0.221919 0.221186 
0.220837 0.222452 0.227717 0.23467 0.24203 0.249645 0.256563 0.264666 0.272158 
0.280869 0.287683 0.294249 0.297499 0.301133 0.302517 0.304053 0.304805 0.305301 
0.305449 0.307565 0.221349 0.221275 0.219251 0.218208 0.21755 0.217457 0.217238 
0.217039 0.216811 0.218469 0.222839 0.230113 0.239 0.248058 0.257209 0.26621 
0.275928 0.285616 0.295283 0.302012 0.30852 0.31137 0.314971 0.316331 0.317743 
0.318342 0.319875 0.321348 0.215452 0.215169 0.213637 0.213143 0.212649 0.212496 
0.212553 0.213486 0.214733 0.216836 0.220265 0.226493 0.235297 0.245529 0.256125 
0.266556 0.277887 0.289283 0.299764 0.309681 0.315406 0.321539 0.324116 0.327504 
0.328582 0.33036 0.330422 0.333764 0.209685 0.209389 0.208231 0.208372 0.208065 
0.208055 0.209071 0.211156 0.213437 0.215656 0.218827 0.224118 0.231655 0.24168 
0.253013 0.26538 0.277802 0.291219 0.304029 0.3138 0.32317 0.327728 0.333267 
0.335412 0.338302 0.338887 0.341289 0.343134 0.204429 0.204361 0.203379 0.203912 
0.204138 0.204789 0.20635 0.209038 0.211679 0.214379 0.21822 0.22321 0.230115 
0.239135 0.250784 0.263779 0.278702 0.293589 0.307087 0.319838 0.327117 0.335032 
0.338181 0.342651 0.343952 0.3465 0.346266 0.350271 0.199722 0.199969 0.198985 
0.199727 0.200632 0.202092 0.203952 0.206724 0.210284 0.214538 0.219258 0.224397 
0.230663 0.239648 0.250453 0.264006 0.278612 0.293765 0.308451 0.318689 0.3288 
0.333291 0.339034 0.341011 0.344184 0.344703 0.347083 0.349068 0.195332 0.195881 