# vtk DataFile Version 5.1
vtk output
ASCII
DATASET STRUCTURED_GRID
DIMENSIONS 25 25 30
POINTS 18750 float
0 0 0.5 0 0 0.503 0 0 0.506095 
0 0 0.509384 0 0 0.512971 0 0 0.516969 
0 0 0.521506 0 0 0.526726 0 0 0.532795 
0 0 0.539904 0 0 0.548281 0 0 0.55819 
0 0 0.569947 0 0 0.583924 0 0 0.600565 
0 0 0.6204 0 0 0.644057 0 0 0.672287 
0 0 0.705987 0 0 0.746226 0 0 0.794282 
0 0 0.851682 0 0 0.920246 0 0 1.00215 
0 0 1.1 0.00297764 8.11813e-21 0.500366 0.00297775 8.11843e-21 0.503366 
0.00297787 8.11875e-21 0.506461 0.00297799 8.11908e-21 0.509749 0.00297812 8.11945e-21 0.513336 
0.00297827 8.11986e-21 0.517334 0.00297844 8.12032e-21 0.52187 0.00297864 8.12085e-21 0.527089 
0.00297886 8.12146e-21 0.533157 0.00297913 8.12219e-21 0.540264 0.00297944 8.12304e-21 0.548638 
0.00297981 8.12404e-21 0.558544 0.00298025 8.12524e-21 0.570296 0.00298077 8.12666e-21 0.584268 
0.00298139 8.12835e-21 0.600902 0.00298213 8.13037e-21 0.620727 0.00298301 8.13277e-21 0.644372 
0.00298406 8.13564e-21 0.672586 0.00298532 8.13906e-21 0.706267 0.00298682 8.14315e-21 0.746481 
0.00298861 8.14804e-21 0.794507 0.00299075 8.15387e-21 0.851867 0.0029933 8.16083e-21 0.920382 
0.00299635 8.16915e-21 1.00223 0.003 8.17909e-21 1.1 0.00705492 1.92343e-20 0.500866 
0.00705517 1.9235e-20 0.503866 0.00705542 1.92357e-20 0.506961 0.00705569 1.92364e-20 0.51025 
0.00705598 1.92372e-20 0.513836 0.00705631 1.92381e-20 0.517834 0.00705668 1.92391e-20 0.522369 
0.0070571 1.92402e-20 0.527587 0.0070576 1.92416e-20 0.533652 0.00705818 1.92432e-20 0.540757 
0.00705886 1.9245e-20 0.549128 0.00705966 1.92472e-20 0.559029 0.00706062 1.92498e-20 0.570775 
0.00706176 1.92529e-20 0.584739 0.00706312 1.92566e-20 0.601363 0.00706473 1.9261e-20 0.621175 
0.00706666 1.92663e-20 0.644803 0.00706896 1.92726e-20 0.672996 0.0070717 1.928e-20 0.70665 
0.00707498 1.9289e-20 0.746831 0.00707889 1.92996e-20 0.794814 0.00708356 1.93124e-20 0.852121 
0.00708914 1.93276e-20 0.92057 0.00709581 1.93458e-20 1.00233 0.00710377 1.93675e-20 1.1 
0.0126019 3.43573e-20 0.501547 0.0126023 3.43583e-20 0.504547 0.0126027 3.43595e-20 0.507642 
0.0126031 3.43606e-20 0.510931 0.0126036 3.43619e-20 0.514516 0.0126041 3.43634e-20 0.518513 
0.0126047 3.4365e-20 0.523048 0.0126054 3.43669e-20 0.528264 0.0126062 3.43691e-20 0.534326 
0.0126071 3.43716e-20 0.541428 0.0126082 3.43747e-20 0.549794 0.0126095 3.43782e-20 0.559689 
0.0126111 3.43825e-20 0.571427 0.0126129 3.43875e-20 0.58538 0.0126151 3.43935e-20 0.60199 
0.0126178 3.44006e-20 0.621784 0.0126209 3.44091e-20 0.645389 0.0126246 3.44193e-20 0.673554 
0.012629 3.44314e-20 0.707171 0.0126344 3.44459e-20 0.747306 0.0126407 3.44632e-20 0.795231 
0.0126483 3.44838e-20 0.852466 0.0126573 3.45084e-20 0.920824 0.0126681 3.45379e-20 1.00247 
0.012681 3.4573e-20 1.1 0.0200819 5.47506e-20 0.502466 0.0200825 5.47521e-20 0.505466 
0.020083 5.47537e-20 0.508561 0.0200837 5.47554e-20 0.511849 0.0200843 5.47572e-20 0.515434 
0.0200851 5.47593e-20 0.51943 0.0200859 5.47616e-20 0.523962 0.0200869 5.47642e-20 0.529176 
0.0200881 5.47674e-20 0.535235 0.0200894 5.4771e-20 0.542332 0.0200909 5.47753e-20 0.550692 
0.0200928 5.47803e-20 0.560579 0.020095 5.47863e-20 0.572306 0.0200976 5.47934e-20 0.586244 
0.0201007 5.48019e-20 0.602836 0.0201044 5.4812e-20 0.622606 0.0201089 5.48241e-20 0.64618 
0.0201141 5.48385e-20 0.674306 0.0201204 5.48557e-20 0.707874 0.020128 5.48762e-20 0.747947 
0.0201369 5.49006e-20 0.795794 0.0201477 5.49299e-20 0.852931 0.0201605 5.49648e-20 0.921167 
0.0201758 5.50065e-20 1.00266 0.020194 5.50563e-20 1.1 0.0300497 8.19264e-20 0.50369 
0.0300504 8.19284e-20 0.50669 0.0300512 8.19304e-20 0.509785 0.030052 8.19326e-20 0.513072 
0.0300528 8.1935e-20 0.516656 0.0300538 8.19376e-20 0.520651 0.0300549 8.19407e-20 0.525182 
0.0300562 8.19441e-20 0.530392 0.0300577 8.19481e-20 0.536447 0.0300594 8.19529e-20 0.543538 
0.0300614 8.19584e-20 0.551889 0.0300638 8.1965e-20 0.561764 0.0300667 8.19728e-20 0.573476 
0.0300701 8.1982e-20 0.587396 0.0300741 8.19931e-20 0.603962 0.030079 8.20062e-20 0.623701 
0.0300847 8.20218e-20 0.647235 0.0300915 8.20405e-20 0.675309 0.0300997 8.20628e-20 0.708811 
0.0301095 8.20894e-20 0.748801 0.0301211 8.21211e-20 0.796544 0.030135 8.2159e-20 0.85355 
0.0301516 8.22043e-20 0.921623 0.0301714 8.22583e-20 1.00292 0.0301951 8.23229e-20 1.1 
0.0431245 1.17573e-19 0.505295 0.0431253 1.17575e-19 0.508295 0.0431263 1.17578e-19 0.51139 
0.0431272 1.17581e-19 0.514677 0.0431283 1.17583e-19 0.51826 0.0431295 1.17587e-19 0.522253 
0.0431308 1.1759e-19 0.526781 0.0431323 1.17595e-19 0.531987 0.0431341 1.17599e-19 0.538036 
0.0431362 1.17605e-19 0.545119 0.0431387 1.17612e-19 0.553459 0.0431416 1.1762e-19 0.56332 
0.043145 1.17629e-19 0.575012 0.0431491 1.1764e-19 0.588906 0.043154 1.17653e-19 0.60544 
0.0431598 1.17669e-19 0.625137 0.0431667 1.17688e-19 0.648617 0.0431749 1.17711e-19 0.676623 
0.0431848 1.17737e-19 0.710039 0.0431965 1.1777e-19 0.749921 0.0432106 1.17808e-19 0.797528 
0.0432273 1.17853e-19 0.854363 0.0432473 1.17908e-19 0.922222 0.0432712 1.17973e-19 1.00325 
0.0432996 1.18051e-19 1.1 0.059924 1.63375e-19 0.507358 0.059925 1.63377e-19 0.510358 
0.059926 1.6338e-19 0.513452 0.0599271 1.63383e-19 0.516739 0.0599283 1.63386e-19 0.520321 
0.0599296 1.6339e-19 0.524311 0.0599311 1.63394e-19 0.528835 0.0599328 1.63399e-19 0.534036 
0.0599348 1.63404e-19 0.540078 0.0599371 1.6341e-19 0.54715 0.0599399 1.63418e-19 0.555476 
0.0599432 1.63427e-19 0.565318 0.059947 1.63437e-19 0.576985 0.0599516 1.6345e-19 0.590847 
0.059957 1.63465e-19 0.607339 0.0599635 1.63483e-19 0.626982 0.0599713 1.63504e-19 0.650393 
0.0599805 1.63529e-19 0.678312 0.0599915 1.63559e-19 0.711618 0.0600046 1.63594e-19 0.75136 
0.0600203 1.63637e-19 0.798792 0.060039 1.63688e-19 0.855408 0.0600613 1.63749e-19 0.922992 
0.060088 1.63822e-19 1.00367 0.0601198 1.63909e-19 1.1 0.0809454 2.20687e-19 0.509939 
0.0809464 2.20689e-19 0.512939 0.0809475 2.20692e-19 0.516033 0.0809486 2.20695e-19 0.519319 
0.0809498 2.20699e-19 0.522899 0.0809512 2.20702e-19 0.526887 0.0809527 2.20707e-19 0.531407 
0.0809545 2.20711e-19 0.536601 0.0809565 2.20717e-19 0.542633 0.0809589 2.20724e-19 0.549692 
0.0809617 2.20731e-19 0.558 0.0809651 2.2074e-19 0.567818 0.080969 2.20751e-19 0.579455 
0.0809737 2.20764e-19 0.593276 0.0809793 2.20779e-19 0.609715 0.080986 2.20797e-19 0.62929 
0.0809939 2.20819e-19 0.652616 0.0810034 2.20845e-19 0.680426 0.0810147 2.20876e-19 0.713593 
0.0810281 2.20912e-19 0.753161 0.0810442 2.20956e-19 0.800373 0.0810634 2.21008e-19 0.856714 
0.0810862 2.21071e-19 0.923955 0.0811135 2.21145e-19 1.00421 0.0811461 2.21234e-19 1.1 
0.106395 2.90073e-19 0.513064 0.106396 2.90075e-19 0.516064 0.106397 2.90078e-19 0.519158 
0.106398 2.90081e-19 0.522442 0.106399 2.90084e-19 0.526021 0.106401 2.90087e-19 0.530005 
0.106402 2.90091e-19 0.534519 0.106404 2.90095e-19 0.539705 0.106406 2.90101e-19 0.545726 
0.106408 2.90107e-19 0.552769 0.10641 2.90114e-19 0.561056 0.106414 2.90122e-19 0.570845 
0.106417 2.90132e-19 0.582444 0.106421 2.90144e-19 0.596216 0.106427 2.90158e-19 0.612592 
0.106433 2.90174e-19 0.632086 0.10644 2.90194e-19 0.655307 0.106449 2.90218e-19 0.682984 
0.106459 2.90246e-19 0.715984 0.106471 2.9028e-19 0.755341 0.106486 2.9032e-19 0.802288 
0.106503 2.90367e-19 0.858296 0.106524 2.90424e-19 0.925121 0.106549 2.90492e-19 1.00486 
0.106579 2.90574e-19 1.1 0.136004 3.70796e-19 0.516699 0.136004 3.70798e-19 0.519699 
0.136005 3.708e-19 0.522793 0.136006 3.70802e-19 0.526076 0.136007 3.70804e-19 0.529652 
0.136008 3.70807e-19 0.533632 0.136009 3.7081e-19 0.53814 0.13601 3.70813e-19 0.543317 
0.136012 3.70817e-19 0.549324 0.136013 3.70822e-19 0.556349 0.136015 3.70827e-19 0.564611 
0.136018 3.70834e-19 0.574367 0.13602 3.70842e-19 0.585922 0.136024 3.70851e-19 0.599637 
0.136028 3.70861e-19 0.615939 0.136033 3.70874e-19 0.635337 0.136038 3.7089e-19 0.658438 
0.136045 3.70908e-19 0.685961 0.136053 3.7093e-19 0.718766 0.136062 3.70956e-19 0.757877 
0.136074 3.70987e-19 0.804515 0.136087 3.71023e-19 0.860136 0.136103 3.71067e-19 0.926477 
0.136123 3.7112e-19 1.00561 0.136146 3.71183e-19 1.1 0.168895 4.60468e-19 0.520738 
0.168895 4.60469e-19 0.523738 0.168895 4.6047e-19 0.526831 0.168896 4.60471e-19 0.530113 
0.168896 4.60473e-19 0.533687 0.168897 4.60474e-19 0.537662 0.168897 4.60476e-19 0.542163 
0.168898 4.60478e-19 0.54733 0.168899 4.6048e-19 0.553322 0.1689 4.60483e-19 0.560326 
0.168901 4.60486e-19 0.56856 0.168902 4.60489e-19 0.578279 0.168904 4.60493e-19 0.589785 
0.168906 4.60498e-19 0.603436 0.168908 4.60504e-19 0.619656 0.16891 4.60511e-19 0.63895 
0.168913 4.6052e-19 0.661915 0.168917 4.6053e-19 0.689268 0.168922 4.60542e-19 0.721856 
0.168927 4.60556e-19 0.760694 0.168933 4.60573e-19 0.806989 0.16894 4.60593e-19 0.86218 
0.168949 4.60617e-19 0.927983 0.16896 4.60646e-19 1.00644 0.168972 4.6068e-19 1.1 
0.203609 5.55111e-19 0.525 0.203609 5.55111e-19 0.528 0.203609 5.55111e-19 0.531093 
0.203609 5.55111e-19 0.534374 0.203609 5.55111e-19 0.537944 0.203609 5.55111e-19 0.541915 
0.203609 5.55111e-19 0.546409 0.203609 5.55111e-19 0.551564 0.203609 5.55111e-19 0.557541 
0.203609 5.55111e-19 0.564524 0.203609 5.55111e-19 0.572728 0.203609 5.55111e-19 0.582408 
0.203609 5.55111e-19 0.593863 0.203609 5.55111e-19 0.607447 0.203609 5.55111e-19 0.62358 
0.203609 5.55111e-19 0.642762 0.203609 5.55111e-19 0.665586 0.203609 5.55111e-19 0.692757 
0.203609 5.55111e-19 0.725118 0.203609 5.55111e-19 0.763668 0.203609 5.55111e-19 0.8096 
0.203609 5.55111e-19 0.864337 0.203609 5.55111e-19 0.929572 0.203609 5.55111e-19 1.00732 
0.203609 5.55111e-19 1.1 0.238323 6.49755e-19 0.529262 0.238322 6.49754e-19 0.532262 
0.238322 6.49753e-19 0.535355 0.238321 6.49751e-19 0.538634 0.238321 6.4975e-19 0.542202 
0.23832 6.49749e-19 0.546169 0.23832 6.49747e-19 0.550655 0.238319 6.49745e-19 0.555799 
0.238318 6.49743e-19 0.56176 0.238317 6.4974e-19 0.568721 0.238316 6.49737e-19 0.576896 
[...]
POINT_DATA 18750
FIELD FieldData 5
pressure 1 18750 float
0.178573 0.178573 0.178573 0.178573 0.178573 0.178573 0.178573 0.178573 0.178573 
0.178573 0.178573 0.178573 0.178573 0.178573 0.178573 0.178573 0.178573 0.178573 
0.178573 0.178573 0.178573 0.178573 0.178573 0.178573 0.178573 0.178573 0.178573 
0.178573 0.178573 0.178573 0.178573 0.178573 0.178573 0.178573 0.178573 0.178573 
0.178573 0.178573 0.178573 0.178573 0.178573 0.178573 0.178573 0.178573 0.178573 
0.178573 0.178573 0.178573 0.178573 0.178573 0.178573 0.178573 0.178573 0.178573 
0.178573 0.178573 0.178573 0.178573 0.178573 0.178573 0.178573 0.178573 0.178573 
0.178573 0.178573 0.178573 0.178573 0.178573 0.178573 0.178573 0.178573 0.178573 
0.178573 0.178573 0.178573 0.178573 0.178573 0.178573 0.178573 0.178573 0.178573 
0.178573 0.178573 0.178573 0.178573 0.178573 0.178573 0.178573 0.178573 0.178573 
0.178573 0.178573 0.178573 0.178573 0.178573 0.178573 0.178573 0.178573 0.178573 
0.178573 0.178573 0.178573 0.178573 0.178573 0.178573 0.178573 0.178573 0.178573 
0.178573 0.178573 0.178573 0.178573 0.178573 0.178573 0.178573 0.178573 0.178573 
0.178573 0.178573 0.178573 0.178573 0.178573 0.178573 0.178573 0.178573 0.178573 
0.178573 0.178573 0.178573 0.178573 0.178573 0.178573 0.178573 0.178573 0.178573 
0.178573 0.178573 0.178573 0.178573 0.178573 0.178573 0.178573 0.178573 0.178573 
0.178573 0.178573 0.178573 0.178573 0.178573 0.178573 0.178573 0.178573 0.178573 
0.178573 0.178573 0.178573 0.178573 0.178573 0.178573 0.178573 0.178573 0.178573 
0.178573 0.178573 0.178573 0.178573 0.178573 0.178573 0.178573 0.178573 0.178573 
0.178573 0.178573 0.178573 0.178573 0.178573 0.178573 0.178573 0.178573 0.178573 
0.178573 0.178573 0.178573 0.178573 0.178573 0.178573 0.178573 0.178573 0.178573 
0.178573 0.178573 0.178573 0.178573 0.178573 0.178573 0.178573 0.178573 0.178573 
0.178573 0.178573 0.178573 0.178573 0.178573 0.178573 0.178573 0.178573 0.178573 
0.178573 0.178573 0.178573 0.178573 0.178573 0.178573 0.178573 0.178573 0.178573 
0.178573 0.178573 0.178573 0.178573 0.178573 0.178573 0.178573 0.178573 0.178573 
0.178573 0.178573 0.178573 0.178573 0.178573 0.178573 0.178573 0.178573 0.178573 
0.178573 0.178573 0.178573 0.178573 0.178573 0.178573 0.178573 0.178573 0.178573 
0.178573 0.178573 0.178573 0.178573 0.178573 0.178573 0.178573 0.178573 0.178573 
0.178573 0.178573 0.178573 0.178573 0.178573 0.178573 0.178573 0.178573 0.178573 
0.178573 0.178573 0.178573 0.178573 0.178573 0.178573 0.178573 0.178573 0.178573 
0.178573 0.178573 0.178573 0.178573 0.178573 0.178573 0.178573 0.178573 0.178573 
0.178573 0.178573 0.178573 0.178573 0.178573 0.178573 0.178573 0.178573 0.178573 
0.178573 0.178573 0.178573 0.178573 0.178573 0.178573 0.178573 0.178573 0.178573 
0.178573 0.178573 0.178573 0.178573 0.178573 0.178573 0.178573 0.178573 0.178573 
0.178573 0.178573 0.178573 0.178573 0.178573 0.178573 0.178573 0.178573 0.178573 
0.178573 0.178573 0.178573 0.178573 0.178573 0.178573 0.178573 0.178573 0.178573 
0.178573 0.178573 0.178573 0.178573 0.178573 0.178573 0.178573 0.178573 0.178573 
0.178573 0.178573 0.178573 0.178573 0.178573 0.178573 0.178573 0.178573 0.178573 
0.178573 0.178573 0.178573 0.178573 0.178573 0.178573 0.178573 0.178573 0.178573 
0.178573 0.178573 0.178573 0.178573 0.178573 0.178573 0.178573 0.178573 0.178573 
0.178573 0.178573 0.178573 0.178573 0.178573 0.178573 0.178573 0.178573 0.178573 
0.178573 0.178573 0.178573 0.178573 0.178573 0.178573 0.178573 0.178573 0.178573 
0.178573 0.178573 0.178573 0.178573 0.178573 0.178573 0.178573 0.178573 0.178573 
0.178573 0.178573 0.178573 0.178573 0.178573 0.178573 0.178573 0.178573 0.178573 
0.178573 0.178573 0.178573 0.178573 0.178573 0.178573 0.178573 0.178573 0.178573 
0.178573 0.178573 0.178573 0.178573 0.178573 0.178573 0.178573 0.178573 0.178573 
0.178573 0.178573 0.178573 0.178573 0.178573 0.178573 0.178573 0.178573 0.178573 
0.178573 0.178573 0.178573 0.178573 0.178573 0.178573 0.178573 0.178573 0.178573 
0.178573 0.178573 0.178573 0.178573 0.178573 0.178573 0.178573 0.178573 0.178573 
0.178573 0.178573 0.178573 0.178573 0.178573 0.178573 0.178573 0.178573 0.178573 
0.178573 0.178573 0.178573 0.178573 0.178573 0.178573 0.178573 0.178573 0.178573 
0.178573 0.178573 0.178573 0.178573 0.178573 0.178573 0.178573 0.178573 0.178573 
0.178573 0.178573 0.178573 0.178573 0.178573 0.178573 0.178573 0.178573 0.178573 
0.178573 0.178573 0.178573 0.178573 0.178573 0.178573 0.178573 0.178573 0.178573 
0.178573 0.178573 0.178573 0.178573 0.178573 0.178573 0.178573 0.178573 0.178573 
0.178573 0.178573 0.178573 0.178573 0.178573 0.178573 0.178573 0.178573 0.178573 
0.178573 0.178573 0.178573 0.178573 0.178573 0.178573 0.178573 0.178573 0.178573 
0.178573 0.178573 0.178573 0.178573 0.178573 0.178573 0.178573 0.178573 0.178573 
0.178573 0.178573 0.178573 0.178573 0.178573 0.178573 0.178573 0.178573 0.178573 
0.178573 0.178573 0.178573 0.178573 0.178573 0.178573 0.178573 0.178573 0.178573 
0.178573 0.178573 0.178573 0.178573 0.178573 0.178573 0.178573 0.178573 0.178573 
0.178573 0.178573 0.178573 0.178573 0.178573 0.178573 0.178573 0.178573 0.178573 
0.178573 0.178573 0.178573 0.178573 0.178573 0.178573 0.178573 0.178573 0.178573 
0.178573 0.178573 0.178573 0.178573 0.178573 0.178573 0.178573 0.178573 0.178573 
0.178573 0.178573 0.178573 0.178573 0.178573 0.178573 0.178573 0.178573 0.178573 
0.178573 0.178573 0.178573 0.178573 0.178573 0.178573 0.178573 0.178573 0.178573 
0.178573 0.178573 0.178573 0.178573 0.178573 0.178573 0.178573 0.178573 0.178573 
0.178573 0.178573 0.178573 0.178573 0.178573 0.178573 0.178573 0.178573 0.178573 
0.178573 0.178573 0.178573 0.178573 0.178573 0.178573 0.178573 0.178573 0.178573 
0.178573 0.178573 0.178573 0.178573 0.1786 0.178596 0.178565 0.178564 0.178573 
0.17857 0.178573 0.178573 0.178573 0.178573 0.178573 0.178573 0.178573 0.178573 
0.178573 0.178573 0.178573 0.178573 0.178573 0.178573 0.178573 0.178573 0.178573 
0.178573 0.178573 0.18689 0.18689 0.178791 0.178584 0.178571 0.178573 0.178574 
0.178573 0.178573 0.178573 0.178573 0.178573 0.178573 0.178573 0.178573 0.178573 
0.178573 0.178573 0.178573 0.178573 0.178573 0.178573 0.178573 0.178573 0.178573 
0.185594 0.185594 0.180744 0.178791 0.178587 0.178571 0.178573 0.178574 0.178573 
0.178573 0.178573 0.178573 0.178573 0.178573 0.178573 0.178573 0.178573 0.178573 
0.178573 0.178573 0.178573 0.178573 0.178573 0.178573 0.178573 0.182424 0.182424 
0.181612 0.179443 0.17872 0.178586 0.178571 0.178573 0.178573 0.178573 0.178573 
0.178573 0.178573 0.178573 0.178573 0.178573 0.178573 0.178573 0.178573 0.178573 
0.178573 0.178573 0.178573 0.178573 0.178573 0.181916 0.181916 0.181433 0.17965 
0.179007 0.178689 0.178586 0.178572 0.178573 0.178573 0.178573 0.178573 0.178573 
0.178573 0.178573 0.178573 0.178573 0.178573 0.178573 0.178573 0.178573 0.178573 
0.178573 0.178573 0.178573 0.181127 0.181127 0.181397 0.179734 0.179129 0.178847 
0.178671 0.178588 0.178572 0.178572 0.178573 0.178573 0.178573 0.178573 0.178573 
0.178573 0.178573 0.178573 0.178573 0.178573 0.178573 0.178573 0.178573 0.178573 
0.178573 0.180548 0.180548 0.181236 0.179952 0.179189 0.178919 0.178776 0.178658 
0.17859 0.178572 0.178572 0.178573 0.178573 0.178573 0.178573 0.178573 0.178573 
0.178573 0.178573 0.178573 0.178573 0.178573 0.178573 0.178573 0.178573 0.180179 
0.180179 0.181169 0.180125 0.179316 0.178987 0.178822 0.178735 0.178655 0.178595 
0.178573 0.178572 0.178573 0.178573 0.178573 0.178573 0.178573 0.178573 0.178573 
0.178573 0.178573 0.178573 0.178573 0.178573 0.178573 0.179885 0.179885 0.180882 
0.180162 0.179467 0.179093 0.178894 0.178769 0.178701 0.178648 0.1786 0.178576 
0.178572 0.178573 0.178573 0.178573 0.178573 0.178573 0.178573 0.178573 0.178573 
0.178573 0.178573 0.178573 0.178573 0.179604 0.179604 0.180386 0.180042 0.179614 
0.179208 0.17897 0.178838 0.178744 0.17868 0.178637 0.1786 0.178578 0.178573 
0.178573 0.178573 0.178573 0.178573 0.178573 0.178573 0.178573 0.178573 0.178573 
0.178573 0.178573 0.179424 0.179424 0.179907 0.179829 0.179639 0.179323 0.179036 
0.178872 0.178796 0.178734 0.178672 0.178629 0.178598 0.178578 0.178573 0.178573 
0.178573 0.178573 0.178573 0.178573 0.178573 0.178573 0.178573 0.178573 0.178573 
0.179322 0.179322 0.179631 0.179612 0.179545 0.179339 0.179111 0.178912 0.1788 
0.178758 0.178724 0.178667 0.178624 0.178595 0.178578 0.178573 0.178573 0.178573 
0.178573 0.178573 0.178573 0.178573 0.178573 0.178573 0.178573 0.179288 0.179288 
0.179498 0.179474 0.179443 0.179282 0.179111 0.178955 0.178823 0.178746 0.178732 
0.178716 0.17866 0.178617 0.17859 0.178577 0.178573 0.178573 0.178573 0.178573 
0.178573 0.178573 0.178573 0.178573 0.178573 0.179201 0.179201 0.179381 0.179418 
0.179405 0.179253 0.17909 0.178942 0.178837 0.17875 0.178709 0.178718 0.178704 
0.17865 0.178605 0.178586 0.178576 0.178573 0.178573 0.178573 0.178573 0.178573 
0.178573 0.178573 0.178573 0.179137 0.179137 0.179247 0.17938 0.179381 0.179268 
0.179098 0.178935 0.178812 0.178743 0.178692 0.178688 0.178715 0.17869 0.178636 
0.178594 0.178581 0.178575 0.178573 0.178573 0.178573 0.178573 0.178573 0.178573 
0.178573 0.178939 0.178939 0.179267 0.179345 0.179358 0.179271 0.179131 0.178956 
0.178805 0.178713 0.178675 0.178659 0.178692 0.178712 0.178667 0.178616 0.178585 
0.178577 0.178574 0.178573 0.178573 0.178573 0.178573 0.178573 0.178573 0.178922 
0.178922 0.179215 0.17926 0.179324 0.179264 0.179149 0.178996 0.178825 0.178709 
0.178646 0.178632 0.178658 0.178704 0.17869 0.17864 0.178595 0.178579 0.178575 
0.178573 0.178573 0.178573 0.178573 0.178573 0.178573 0.178912 0.178912 0.179178 
0.179209 0.179282 0.179247 0.179159 0.179022 0.178862 0.178706 0.178632 0.178602 
0.178621 0.178685 0.178701 0.178659 0.178611 0.178582 0.178576 0.178574 0.178573 
0.178573 0.178573 0.178573 0.178573 0.1789 0.1789 0.179149 0.179157 0.179249 
0.17923 0.17916 0.179043 0.178888 0.178729 0.178616 0.17858 0.178589 0.178657 
0.178705 0.178674 0.178626 0.178587 0.178576 0.178574 0.178573 0.178573 0.178573 
0.178573 0.178573 0.178888 0.178888 0.179138 0.179129 0.179224 0.179214 0.179157 
0.17905 0.17891 0.178745 0.178626 0.178556 0.178565 0.178632 0.178698 0.178685 
0.178636 0.178592 0.178578 0.178574 0.178573 0.178573 0.178573 0.178573 0.178573 
0.178888 0.178888 0.179141 0.17912 0.179214 0.179207 0.179156 0.179058 0.178921 
0.178763 0.178618 0.178551 0.178542 0.17861 0.178693 0.178694 0.178642 0.178598 
0.178579 0.178574 0.178573 0.178573 0.178573 0.178573 0.178573 0.178892 0.178892 
0.179146 0.17912 0.17921 0.179202 0.179155 0.179059 0.178931 0.178773 0.178641 
0.17854 0.178535 0.178589 0.178681 0.178699 0.178646 0.178603 0.17858 0.178575 
0.178573 0.178573 0.178573 0.178573 0.178573 0.178904 0.178904 0.179158 0.179126 
0.179215 0.179205 0.179158 0.179065 0.178935 0.178782 0.178629 0.178544 0.17852 
0.178576 0.178677 0.178703 0.17865 0.178608 0.178581 0.178575 0.178573 0.178573 
0.178573 0.178573 0.178573 0.178903 0.178903 0.179159 0.179133 0.179218 0.17921 
0.179163 0.17907 0.178944 0.178785 0.178647 0.178535 0.178515 0.178558 0.178663 
0.178703 0.17865 0.17861 0.178582 0.178575 0.178573 0.178573 0.178573 0.178573 
0.178573 0.178876 0.178876 0.179187 0.179139 0.179212 0.179197 0.179154 0.179066 
0.178944 0.178802 0.178644 0.17855 0.178512 0.178558 0.178665 0.178702 0.17865 
0.178611 0.178582 0.178575 0.178573 0.178574 0.178573 0.178573 0.178573 0.178543 
0.178606 0.178554 0.178559 0.178573 0.17857 0.178572 0.178573 0.178573 0.178573 
0.178573 0.178573 0.178573 0.178573 0.178573 0.178573 0.178573 0.178573 0.178573 
0.178573 0.178573 0.178573 0.178573 0.178573 0.178573 0.192447 0.192447 0.179247 
0.178594 0.178568 0.178573 0.178575 0.178572 0.178573 0.178573 0.178573 0.178573 
0.178573 0.178573 0.178573 0.178573 0.178573 0.178573 0.178573 0.178573 0.178573 
0.178573 0.178573 0.178573 0.178573 0.189682 0.189682 0.183085 0.179077 0.178599 
0.178568 0.178573 0.178574 0.178573 0.178573 0.178573 0.178573 0.178573 0.178573 
0.178573 0.178573 0.178573 0.178573 0.178573 0.178573 0.178573 0.178573 0.178573 
0.178573 0.178573 0.183529 0.183529 0.183809 0.180635 0.178934 0.178599 0.178569 
0.178572 0.178574 0.178573 0.178573 0.178573 0.178573 0.178573 0.178573 0.178573 
0.178573 0.178573 0.178573 0.178573 0.178573 0.178573 0.178573 0.178573 0.178573 
0.182151 0.182151 0.182676 0.180823 0.179692 0.178873 0.178603 0.178571 0.178572 
0.178574 0.178573 0.178573 0.178573 0.178573 0.178573 0.178573 0.178573 0.178573 
0.178573 0.178573 0.178573 0.178573 0.178573 0.178573 0.178573 0.181493 0.181493 
0.182301 0.18065 0.179865 0.179289 0.178833 0.17861 0.178572 0.178571 0.178574 
0.178573 0.178573 0.178573 0.178573 0.178573 0.178573 0.178573 0.178573 0.178573 
0.178573 0.178573 0.178573 0.178573 0.178573 0.180916 0.180916 0.181929 0.180769 
0.17986 0.179442 0.179115 0.178802 0.178616 0.178572 0.178571 0.178573 0.178574 
0.178573 0.178573 0.178573 0.178573 0.178573 0.178573 0.178573 0.178573 0.178573 
0.178573 0.178573 0.178573 0.180489 0.180489 0.181553 0.180817 0.179951 0.179505 
0.179234 0.179016 0.178795 0.17863 0.178574 0.17857 0.178573 0.178574 0.178573 
0.178573 0.178573 0.178573 0.178573 0.178573 0.178573 0.178573 0.178573 0.178573 
0.178573 0.180144 0.180144 0.181108 0.1807 0.180021 0.179586 0.179299 0.179099 
0.178942 0.178784 0.178644 0.178579 0.178571 0.178572 0.178573 0.178573 0.178573 
0.178573 0.178573 0.178573 0.178573 0.178573 0.178573 0.178573 0.178573 0.17984 
0.17984 0.180589 0.180449 0.180059 0.179636 0.179354 0.179166 0.17902 0.178886 
0.178762 0.178648 0.178585 0.178572 0.178572 0.178573 0.178573 0.178573 0.178573 
0.178573 0.178573 0.178573 0.178573 0.178573 0.178573 0.179642 0.179642 0.180137 
0.180152 0.179995 0.179671 0.179365 0.179176 0.17907 0.178975 0.178853 0.178744 
0.178646 0.178587 0.178573 0.178572 0.178573 0.178573 0.178573 0.178573 0.178573 
0.178573 0.178573 0.178573 0.178573 0.179507 0.179507 0.179849 0.179875 0.179835 
0.179624 0.17938 0.179168 0.179044 0.178989 0.178935 0.178827 0.178728 0.17864 
0.178588 0.178574 0.178573 0.178573 0.178573 0.178573 0.178573 0.178573 0.178573 
0.178573 0.178573 0.17947 0.17947 0.179661 0.179689 0.179694 0.179517 0.179335 
0.179161 0.179024 0.178943 0.178933 0.178902 0.178801 0.178709 0.178629 0.178586 
0.178574 0.178573 0.178573 0.178573 0.178573 0.178573 0.178573 0.178573 0.178573 
0.179345 0.179345 0.179544 0.179596 0.17963 0.179469 0.179276 0.179113 0.178993 
0.178909 0.178873 0.178894 0.178866 0.17877 0.178678 0.178616 0.178581 0.178574 
0.178573 0.178573 0.178573 0.178573 0.178573 0.178573 0.178573 0.179284 0.179284 
0.179388 0.17955 0.179584 0.17947 0.179278 0.179073 0.17894 0.178861 0.178821 
0.178835 0.178872 0.178831 0.178738 0.178649 0.1786 0.178578 0.178573 0.178573 
0.178573 0.178573 0.178573 0.178573 0.178573 0.179048 0.179048 0.17943 0.179491 
0.179555 0.179464 0.179304 0.179098 0.178901 0.178809 0.178766 0.178771 0.178839 
0.178855 0.178786 0.178695 0.178621 0.178587 0.178575 0.178573 0.178573 0.178573 
0.178573 0.178573 0.178573 0.179052 0.179052 0.179372 0.179421 0.1795 0.179455 
0.179324 0.179133 0.17893 0.178763 0.178718 0.178709 0.17877 0.178849 0.178814 
0.178737 0.178649 0.178598 0.178578 0.178574 0.178573 0.178573 0.178573 0.178573 
0.178573 0.179026 0.179026 0.179343 0.179345 0.179459 0.179428 0.179335 0.179169 
0.178958 0.178776 0.178645 0.178659 0.178702 0.178809 0.178836 0.178762 0.178679 
0.178612 0.178582 0.178575 0.178573 0.178573 0.178573 0.178573 0.178573 0.179021 
0.179021 0.179305 0.179302 0.179411 0.179413 0.179332 0.179189 0.179 0.178782 
0.178649 0.17859 0.178646 0.178765 0.178832 0.178786 0.178704 0.178625 0.178587 
0.178576 0.178573 0.178573 0.178573 0.178573 0.178573 0.178993 0.178993 0.179306 
0.179262 0.17939 0.179386 0.179332 0.179199 0.179016 0.178815 0.178619 0.178575 
0.17859 0.178717 0.178829 0.178795 0.178722 0.178638 0.178593 0.178577 0.178573 
0.178573 0.178573 0.178573 0.178573 0.178998 0.178998 0.179299 0.179264 0.179372 
0.179384 0.179327 0.179207 0.179038 0.178821 0.178647 0.178539 0.17857 0.178678 
0.178811 0.178815 0.178729 0.178649 0.178598 0.178578 0.178574 0.178573 0.178573 
0.178573 0.178573 0.178989 0.178989 0.17932 0.179256 0.179375 0.179371 0.179329 
0.179209 0.179042 0.178847 0.17863 0.178544 0.178531 0.178642 0.178799 0.178814 
0.178737 0.178659 0.178601 0.178579 0.178574 0.178573 0.178573 0.178573 0.178573 
0.17901 0.17901 0.179321 0.179276 0.179375 0.179385 0.179329 0.179217 0.179054 
0.178844 0.178664 0.178525 0.178533 0.178618 0.178784 0.178831 0.178741 0.178669 
0.178607 0.17858 0.178574 0.178573 0.178573 0.178573 0.178573 0.178995 0.178995 
0.17934 0.179275 0.179392 0.179385 0.179344 0.179224 0.179058 0.178859 0.178632 
0.178527 0.178497 0.178594 0.178766 0.178819 0.178743 0.178671 0.178607 0.178581 
0.178574 0.178573 0.178573 0.178573 0.178573 0.178957 0.178957 0.179344 0.179305 
0.179371 0.179376 0.179327 0.179225 0.179075 0.17888 0.178687 0.178531 0.178519 
0.178585 0.17876 0.178827 0.178738 0.178672 0.178608 0.178581 0.178574 0.178574 
0.178573 0.178573 0.178573 0.178586 0.178618 0.178553 0.178557 0.178573 0.178571 
0.178571 0.178573 0.178573 0.178573 0.178573 0.178573 0.178573 0.178573 0.178573 
0.178573 0.178573 0.178573 0.178573 0.178573 0.178573 0.178573 0.178573 0.178573 
0.178573 0.196219 0.196219 0.179604 0.178607 0.178566 0.178573 0.178576 0.178572 
0.178573 0.178573 0.178573 0.178573 0.178573 0.178573 0.178573 0.178573 0.178573 
0.178573 0.178573 0.178573 0.178573 0.178573 0.178573 0.178573 0.178573 0.192967 
0.192967 0.184828 0.179297 0.17861 0.178566 0.178572 0.178575 0.178573 0.178573 
0.178573 0.178573 0.178573 0.178573 0.178573 0.178573 0.178573 0.178573 0.178573 
0.178573 0.178573 0.178573 0.178573 0.178573 0.178573 0.184751 0.184751 0.185492 
0.181535 0.1791 0.178611 0.178568 0.178571 0.178575 0.178573 0.178573 0.178573 
0.178573 0.178573 0.178573 0.178573 0.178573 0.178573 0.178573 0.178573 0.178573 
0.178573 0.178573 0.178573 0.178573 0.18291 0.18291 0.183769 0.181709 0.180183 
0.179015 0.178617 0.17857 0.178571 0.178574 0.178573 0.178573 0.178573 0.178573 
0.178573 0.178573 0.178573 0.178573 0.178573 0.178573 0.178573 0.178573 0.178573 
0.178573 0.178573 0.182154 0.182154 0.183214 0.181368 0.180422 0.17961 0.178959 
0.178628 0.178571 0.178571 0.178574 0.178573 0.178573 0.178573 0.178573 0.178573 
0.178573 0.178573 0.178573 0.178573 0.178573 0.178573 0.178573 0.178573 0.178573 
0.181477 0.181477 0.182725 0.181423 0.18038 0.179832 0.179367 0.178912 0.178637 
0.178572 0.17857 0.178574 0.178574 0.178573 0.178573 0.178573 0.178573 0.178573 
0.178573 0.178573 0.178573 0.178573 0.178573 0.178573 0.178573 0.18097 0.18097 
0.182223 0.181402 0.180444 0.179901 0.179536 0.179228 0.178902 0.178656 0.178574 
0.178569 0.178573 0.178574 0.178573 0.178573 0.178573 0.178573 0.178573 0.178573 
0.178573 0.178573 0.178573 0.178573 0.178573 0.18055 0.18055 0.181658 0.181205 
0.180467 0.179961 0.179603 0.179338 0.179125 0.178891 0.178679 0.178582 0.17857 
0.178572 0.178573 0.178573 0.178573 0.178573 0.178573 0.178573 0.178573 0.178573 
0.178573 0.178573 0.178573 0.180175 0.180175 0.18103 0.180872 0.180453 0.179987 
0.179646 0.179407 0.17921 0.179044 0.178862 0.178687 0.178589 0.178572 0.178572 
0.178573 0.178573 0.178573 0.178573 0.178573 0.178573 0.178573 0.178573 0.178573 
0.178573 0.179917 0.179917 0.18049 0.180506 0.180336 0.179989 0.179647 0.179413 
0.179266 0.179131 0.178986 0.178836 0.178685 0.178594 0.178573 0.178572 0.178573 
0.178573 0.178573 0.178573 0.178573 0.178573 0.178573 0.178573 0.178573 0.179741 
0.179741 0.180126 0.18017 0.180134 0.179901 0.179641 0.179397 0.179239 0.17915 
0.179066 0.178941 0.178811 0.178677 0.178595 0.178574 0.178572 0.178573 0.178573 
0.178573 0.178573 0.178573 0.178573 0.178573 0.178573 0.179659 0.179659 0.179883 
0.179937 0.179952 0.179769 0.179567 0.17938 0.179213 0.179105 0.179063 0.17901 
0.178897 0.178782 0.178662 0.178592 0.178574 0.178573 0.178573 0.178573 0.178573 