# vtk DataFile Version 5.1
vtk output
ASCII
DATASET STRUCTURED_GRID
DIMENSIONS 30 25 20
POINTS 15000 float
0 0.005 0.5 -0.003 0.005 0.5 -0.00604287 0.005 0.5 
-0.0091721 0.005 0.5 -0.0124324 0.005 0.5 -0.0158704 0.005 0.5 
-0.0195351 0.005 0.5 -0.0234791 0.005 0.5 -0.0277585 0.005 0.5 
-0.0324346 0.005 0.5 -0.0375743 0.005 0.5 -0.0432509 0.005 0.5 
-0.0495456 0.005 0.5 -0.0565483 0.005 0.5 -0.0643591 0.005 0.5 
-0.0730896 0.005 0.5 -0.0828646 0.005 0.5 -0.0938238 0.005 0.5 
-0.106124 0.005 0.5 -0.11994 0.005 0.5 -0.135471 0.005 0.5 
-0.152937 0.005 0.5 -0.172589 0.005 0.5 -0.194708 0.005 0.5 
-0.219609 0.005 0.5 -0.247648 0.005 0.5 -0.279226 0.005 0.5 
-0.314795 0.005 0.5 -0.354862 0.005 0.5 -0.4 0.005 0.5 
0 0.005 0.503 -0.003 0.005 0.503 -0.00604287 0.005 0.503 
-0.0091721 0.005 0.503 -0.0124324 0.005 0.503 -0.0158704 0.005 0.503 
-0.0195351 0.005 0.503 -0.0234791 0.005 0.503 -0.0277585 0.005 0.503 
-0.0324346 0.005 0.503 -0.0375743 0.005 0.503 -0.0432509 0.005 0.503 
-0.0495456 0.005 0.503 -0.0565483 0.005 0.503 -0.0643591 0.005 0.503 
-0.0730896 0.005 0.503 -0.0828646 0.005 0.503 -0.0938238 0.005 0.503 
-0.106124 0.005 0.503 -0.11994 0.005 0.503 -0.135471 0.005 0.503 
-0.152937 0.005 0.503 -0.172589 0.005 0.503 -0.194708 0.005 0.503 
-0.219609 0.005 0.503 -0.247648 0.005 0.503 -0.279226 0.005 0.503 
-0.314795 0.005 0.503 -0.354862 0.005 0.503 -0.4 0.005 0.503 
0 0.005 0.506095 -0.003 0.005 0.506095 -0.00604287 0.005 0.506095 
-0.0091721 0.005 0.506095 -0.0124324 0.005 0.506095 -0.0158704 0.005 0.506095 
-0.0195351 0.005 0.506095 -0.0234791 0.005 0.506095 -0.0277585 0.005 0.506095 
-0.0324346 0.005 0.506095 -0.0375743 0.005 0.506095 -0.0432509 0.005 0.506095 
-0.0495456 0.005 0.506095 -0.0565483 0.005 0.506095 -0.0643591 0.005 0.506095 
-0.0730896 0.005 0.506095 -0.0828646 0.005 0.506095 -0.0938238 0.005 0.506095 
-0.106124 0.005 0.506095 -0.11994 0.005 0.506095 -0.135471 0.005 0.506095 
-0.152937 0.005 0.506095 -0.172589 0.005 0.506095 -0.194708 0.005 0.506095 
-0.219609 0.005 0.506095 -0.247648 0.005 0.506095 -0.279226 0.005 0.506095 
-0.314795 0.005 0.506095 -0.354862 0.005 0.506095 -0.4 0.005 0.506095 
0 0.005 0.509384 -0.003 0.005 0.509384 -0.00604287 0.005 0.509384 
-0.0091721 0.005 0.509384 -0.0124324 0.005 0.509384 -0.0158704 0.005 0.509384 
-0.0195351 0.005 0.509384 -0.0234791 0.005 0.509384 -0.0277585 0.005 0.509384 
-0.0324346 0.005 0.509384 -0.0375743 0.005 0.509384 -0.0432509 0.005 0.509384 
-0.0495456 0.005 0.509384 -0.0565483 0.005 0.509384 -0.0643591 0.005 0.509384 
-0.0730896 0.005 0.509384 -0.0828646 0.005 0.509384 -0.0938238 0.005 0.509384 
-0.106124 0.005 0.509384 -0.11994 0.005 0.509384 -0.135471 0.005 0.509384 
-0.152937 0.005 0.509384 -0.172589 0.005 0.509384 -0.194708 0.005 0.509384 
-0.219609 0.005 0.509384 -0.247648 0.005 0.509384 -0.279226 0.005 0.509384 
-0.314795 0.005 0.509384 -0.354862 0.005 0.509384 -0.4 0.005 0.509384 
0 0.005 0.512971 -0.003 0.005 0.512971 -0.00604287 0.005 0.512971 
-0.0091721 0.005 0.512971 -0.0124324 0.005 0.512971 -0.0158704 0.005 0.512971 
-0.0195351 0.005 0.512971 -0.0234791 0.005 0.512971 -0.0277585 0.005 0.512971 
-0.0324346 0.005 0.512971 -0.0375743 0.005 0.512971 -0.0432509 0.005 0.512971 
-0.0495456 0.005 0.512971 -0.0565483 0.005 0.512971 -0.0643591 0.005 0.512971 
-0.0730896 0.005 0.512971 -0.0828646 0.005 0.512971 -0.0938238 0.005 0.512971 
-0.106124 0.005 0.512971 -0.11994 0.005 0.512971 -0.135471 0.005 0.512971 
-0.152937 0.005 0.512971 -0.172589 0.005 0.512971 -0.194708 0.005 0.512971 
-0.219609 0.005 0.512971 -0.247648 0.005 0.512971 -0.279226 0.005 0.512971 
-0.314795 0.005 0.512971 -0.354862 0.005 0.512971 -0.4 0.005 0.512971 
0 0.005 0.516969 -0.003 0.005 0.516969 -0.00604287 0.005 0.516969 
-0.0091721 0.005 0.516969 -0.0124324 0.005 0.516969 -0.0158704 0.005 0.516969 
-0.0195351 0.005 0.516969 -0.0234791 0.005 0.516969 -0.0277585 0.005 0.516969 
-0.0324346 0.005 0.516969 -0.0375743 0.005 0.516969 -0.0432509 0.005 0.516969 
-0.0495456 0.005 0.516969 -0.0565483 0.005 0.516969 -0.0643591 0.005 0.516969 
-0.0730896 0.005 0.516969 -0.0828646 0.005 0.516969 -0.0938238 0.005 0.516969 
-0.106124 0.005 0.516969 -0.11994 0.005 0.516969 -0.135471 0.005 0.516969 
-0.152937 0.005 0.516969 -0.172589 0.005 0.516969 -0.194708 0.005 0.516969 
-0.219609 0.005 0.516969 -0.247648 0.005 0.516969 -0.279226 0.005 0.516969 
-0.314795 0.005 0.516969 -0.354862 0.005 0.516969 -0.4 0.005 0.516969 
0 0.005 0.521506 -0.003 0.005 0.521506 -0.00604287 0.005 0.521506 
-0.0091721 0.005 0.521506 -0.0124324 0.005 0.521506 -0.0158704 0.005 0.521506 
-0.0195351 0.005 0.521506 -0.0234791 0.005 0.521506 -0.0277585 0.005 0.521506 
-0.0324346 0.005 0.521506 -0.0375743 0.005 0.521506 -0.0432509 0.005 0.521506 
-0.0495456 0.005 0.521506 -0.0565483 0.005 0.521506 -0.0643591 0.005 0.521506 
-0.0730896 0.005 0.521506 -0.0828646 0.005 0.521506 -0.0938238 0.005 0.521506 
-0.106124 0.005 0.521506 -0.11994 0.005 0.521506 -0.135471 0.005 0.521506 
-0.152937 0.005 0.521506 -0.172589 0.005 0.521506 -0.194708 0.005 0.521506 
-0.219609 0.005 0.521506 -0.247648 0.005 0.521506 -0.279226 0.005 0.521506 
-0.314795 0.005 0.521506 -0.354862 0.005 0.521506 -0.4 0.005 0.521506 
0 0.005 0.526726 -0.003 0.005 0.526726 -0.00604287 0.005 0.526726 
-0.0091721 0.005 0.526726 -0.0124324 0.005 0.526726 -0.0158704 0.005 0.526726 
-0.0195351 0.005 0.526726 -0.0234791 0.005 0.526726 -0.0277585 0.005 0.526726 
-0.0324346 0.005 0.526726 -0.0375743 0.005 0.526726 -0.0432509 0.005 0.526726 
-0.0495456 0.005 0.526726 -0.0565483 0.005 0.526726 -0.0643591 0.005 0.526726 
-0.0730896 0.005 0.526726 -0.0828646 0.005 0.526726 -0.0938238 0.005 0.526726 
-0.106124 0.005 0.526726 -0.11994 0.005 0.526726 -0.135471 0.005 0.526726 
-0.152937 0.005 0.526726 -0.172589 0.005 0.526726 -0.194708 0.005 0.526726 
-0.219609 0.005 0.526726 -0.247648 0.005 0.526726 -0.279226 0.005 0.526726 
-0.314795 0.005 0.526726 -0.354862 0.005 0.526726 -0.4 0.005 0.526726 
0 0.005 0.532795 -0.003 0.005 0.532795 -0.00604287 0.005 0.532795 
-0.0091721 0.005 0.532795 -0.0124324 0.005 0.532795 -0.0158704 0.005 0.532795 
-0.0195351 0.005 0.532795 -0.0234791 0.005 0.532795 -0.0277585 0.005 0.532795 
-0.0324346 0.005 0.532795 -0.0375743 0.005 0.532795 -0.0432509 0.005 0.532795 
-0.0495456 0.005 0.532795 -0.0565483 0.005 0.532795 -0.0643591 0.005 0.532795 
-0.0730896 0.005 0.532795 -0.0828646 0.005 0.532795 -0.0938238 0.005 0.532795 
-0.106124 0.005 0.532795 -0.11994 0.005 0.532795 -0.135471 0.005 0.532795 
-0.152937 0.005 0.532795 -0.172589 0.005 0.532795 -0.194708 0.005 0.532795 
-0.219609 0.005 0.532795 -0.247648 0.005 0.532795 -0.279226 0.005 0.532795 
-0.314795 0.005 0.532795 -0.354862 0.005 0.532795 -0.4 0.005 0.532795 
0 0.005 0.539904 -0.003 0.005 0.539904 -0.00604287 0.005 0.539904 
-0.0091721 0.005 0.539904 -0.0124324 0.005 0.539904 -0.0158704 0.005 0.539904 
-0.0195351 0.005 0.539904 -0.0234791 0.005 0.539904 -0.0277585 0.005 0.539904 
-0.0324346 0.005 0.539904 -0.0375743 0.005 0.539904 -0.0432509 0.005 0.539904 
-0.0495456 0.005 0.539904 -0.0565483 0.005 0.539904 -0.0643591 0.005 0.539904 
-0.0730896 0.005 0.539904 -0.0828646 0.005 0.539904 -0.0938238 0.005 0.539904 
-0.106124 0.005 0.539904 -0.11994 0.005 0.539904 -0.135471 0.005 0.539904 
-0.152937 0.005 0.539904 -0.172589 0.005 0.539904 -0.194708 0.005 0.539904 
-0.219609 0.005 0.539904 -0.247648 0.005 0.539904 -0.279226 0.005 0.539904 
-0.314795 0.005 0.539904 -0.354862 0.005 0.539904 -0.4 0.005 0.539904 
0 0.005 0.548281 -0.003 0.005 0.548281 -0.00604287 0.005 0.548281 
-0.0091721 0.005 0.548281 -0.0124324 0.005 0.548281 -0.0158704 0.005 0.548281 
-0.0195351 0.005 0.548281 -0.0234791 0.005 0.548281 -0.0277585 0.005 0.548281 
-0.0324346 0.005 0.548281 -0.0375743 0.005 0.548281 -0.0432509 0.005 0.548281 
-0.0495456 0.005 0.548281 -0.0565483 0.005 0.548281 -0.0643591 0.005 0.548281 
-0.0730896 0.005 0.548281 -0.0828646 0.005 0.548281 -0.0938238 0.005 0.548281 
-0.106124 0.005 0.548281 -0.11994 0.005 0.548281 -0.135471 0.005 0.548281 
-0.152937 0.005 0.548281 -0.172589 0.005 0.548281 -0.194708 0.005 0.548281 
-0.219609 0.005 0.548281 -0.247648 0.005 0.548281 -0.279226 0.005 0.548281 
-0.314795 0.005 0.548281 -0.354862 0.005 0.548281 -0.4 0.005 0.548281 
0 0.005 0.55819 -0.003 0.005 0.55819 -0.00604287 0.005 0.55819 
-0.0091721 0.005 0.55819 -0.0124324 0.005 0.55819 -0.0158704 0.005 0.55819 
-0.0195351 0.005 0.55819 -0.0234791 0.005 0.55819 -0.0277585 0.005 0.55819 
-0.0324346 0.005 0.55819 -0.0375743 0.005 0.55819 -0.0432509 0.005 0.55819 
-0.0495456 0.005 0.55819 -0.0565483 0.005 0.55819 -0.0643591 0.005 0.55819 
-0.0730896 0.005 0.55819 -0.0828646 0.005 0.55819 -0.0938238 0.005 0.55819 
-0.106124 0.005 0.55819 -0.11994 0.005 0.55819 -0.135471 0.005 0.55819 
-0.152937 0.005 0.55819 -0.172589 0.005 0.55819 -0.194708 0.005 0.55819 
-0.219609 0.005 0.55819 -0.247648 0.005 0.55819 -0.279226 0.005 0.55819 
-0.314795 0.005 0.55819 -0.354862 0.005 0.55819 -0.4 0.005 0.55819 
0 0.005 0.569947 -0.003 0.005 0.569947 -0.00604287 0.005 0.569947 
-0.0091721 0.005 0.569947 -0.0124324 0.005 0.569947 -0.0158704 0.005 0.569947 
-0.0195351 0.005 0.569947 -0.0234791 0.005 0.569947 -0.0277585 0.005 0.569947 
-0.0324346 0.005 0.569947 -0.0375743 0.005 0.569947 -0.0432509 0.005 0.569947 
-0.0495456 0.005 0.569947 -0.0565483 0.005 0.569947 -0.0643591 0.005 0.569947 
-0.0730896 0.005 0.569947 -0.0828646 0.005 0.569947 -0.0938238 0.005 0.569947 
-0.106124 0.005 0.569947 -0.11994 0.005 0.569947 -0.135471 0.005 0.569947 
-0.152937 0.005 0.569947 -0.172589 0.005 0.569947 -0.194708 0.005 0.569947 
-0.219609 0.005 0.569947 -0.247648 0.005 0.569947 -0.279226 0.005 0.569947 
-0.314795 0.005 0.569947 -0.354862 0.005 0.569947 -0.4 0.005 0.569947 
0 0.005 0.583924 -0.003 0.005 0.583924 -0.00604287 0.005 0.583924 
-0.0091721 0.005 0.583924 -0.0124324 0.005 0.583924 -0.0158704 0.005 0.583924 
-0.0195351 0.005 0.583924 -0.0234791 0.005 0.583924 -0.0277585 0.005 0.583924 
[...]
POINT_DATA 15000
FIELD FieldData 5
pressure 1 15000 float
0.2039 0.178653 0.178541 0.178591 0.178566 0.178574 0.178573 0.178573 0.178573 
0.178573 0.178573 0.178573 0.178573 0.178573 0.178573 0.178573 0.178573 0.178573 
0.178573 0.178573 0.178573 0.178573 0.178573 0.178573 0.178573 0.178573 0.178573 
0.178573 0.178573 0.178573 0.2039 0.178687 0.178551 0.178582 0.178571 0.178572 
0.178573 0.178573 0.178573 0.178573 0.178573 0.178573 0.178573 0.178573 0.178573 
0.178573 0.178573 0.178573 0.178573 0.178573 0.178573 0.178573 0.178573 0.178573 
0.178573 0.178573 0.178573 0.178573 0.178573 0.178573 0.181542 0.178591 0.178559 
0.178584 0.178566 0.178576 0.178572 0.178573 0.178573 0.178573 0.178573 0.178573 
0.178573 0.178573 0.178573 0.178573 0.178573 0.178573 0.178573 0.178573 0.178573 
0.178573 0.178573 0.178573 0.178573 0.178573 0.178573 0.178573 0.178573 0.178573 
0.178992 0.17855 0.178582 0.178572 0.178571 0.178575 0.178572 0.178574 0.178573 
0.178573 0.178573 0.178573 0.178573 0.178573 0.178573 0.178573 0.178573 0.178573 
0.178573 0.178573 0.178573 0.178573 0.178573 0.178573 0.178573 0.178573 0.178573 
0.178573 0.178573 0.178573 0.178461 0.178573 0.178579 0.178568 0.178576 0.178572 
0.178573 0.178573 0.178573 0.178573 0.178573 0.178573 0.178573 0.178573 0.178573 
0.178573 0.178573 0.178573 0.178573 0.178573 0.178573 0.178573 0.178573 0.178573 
0.178573 0.178573 0.178573 0.178573 0.178573 0.178573 0.178579 0.178577 0.17857 
0.178574 0.178573 0.178572 0.178573 0.178573 0.178573 0.178573 0.178573 0.178573 
0.178573 0.178573 0.178573 0.178573 0.178573 0.178573 0.178573 0.178573 0.178573 
0.178573 0.178573 0.178573 0.178573 0.178573 0.178573 0.178573 0.178573 0.178573 
0.178589 0.17857 0.178574 0.178573 0.178573 0.178573 0.178573 0.178573 0.178573 
0.178573 0.178573 0.178573 0.178573 0.178573 0.178573 0.178573 0.178573 0.178573 
0.178573 0.178573 0.178573 0.178573 0.178573 0.178573 0.178573 0.178573 0.178573 
0.178573 0.178573 0.178573 0.178566 0.178574 0.178573 0.178573 0.178573 0.178573 
0.178573 0.178573 0.178573 0.178573 0.178573 0.178573 0.178573 0.178573 0.178573 
0.178573 0.178573 0.178573 0.178573 0.178573 0.178573 0.178573 0.178573 0.178573 
0.178573 0.178573 0.178573 0.178573 0.178573 0.178573 0.178574 0.178572 0.178573 
0.178573 0.178573 0.178573 0.178573 0.178573 0.178573 0.178573 0.178573 0.178573 
0.178573 0.178573 0.178573 0.178573 0.178573 0.178573 0.178573 0.178573 0.178573 
0.178573 0.178573 0.178573 0.178573 0.178573 0.178573 0.178573 0.178573 0.178573 
0.178572 0.178573 0.178573 0.178573 0.178573 0.178573 0.178573 0.178573 0.178573 
0.178573 0.178573 0.178573 0.178573 0.178573 0.178573 0.178573 0.178573 0.178573 
0.178573 0.178573 0.178573 0.178573 0.178573 0.178573 0.178573 0.178573 0.178573 
0.178573 0.178573 0.178573 0.178573 0.178573 0.178573 0.178573 0.178573 0.178573 
0.178573 0.178573 0.178573 0.178573 0.178573 0.178573 0.178573 0.178573 0.178573 
0.178573 0.178573 0.178573 0.178573 0.178573 0.178573 0.178573 0.178573 0.178573 
0.178573 0.178573 0.178573 0.178573 0.178573 0.178573 0.178573 0.178573 0.178573 
0.178573 0.178573 0.178573 0.178573 0.178573 0.178573 0.178573 0.178573 0.178573 
0.178573 0.178573 0.178573 0.178573 0.178573 0.178573 0.178573 0.178573 0.178573 
0.178573 0.178573 0.178573 0.178573 0.178573 0.178573 0.178573 0.178573 0.178573 
0.178573 0.178573 0.178573 0.178573 0.178573 0.178573 0.178573 0.178573 0.178573 
0.178573 0.178573 0.178573 0.178573 0.178573 0.178573 0.178573 0.178573 0.178573 
0.178573 0.178573 0.178573 0.178573 0.178573 0.178573 0.178573 0.178573 0.178573 
0.178573 0.178573 0.178573 0.178573 0.178573 0.178573 0.178573 0.178573 0.178573 
0.178573 0.178573 0.178573 0.178573 0.178573 0.178573 0.178573 0.178573 0.178573 
0.178573 0.178573 0.178573 0.178573 0.178573 0.178573 0.178573 0.178573 0.178573 
0.178573 0.178573 0.178573 0.178573 0.178573 0.178573 0.178573 0.178573 0.178573 
0.178573 0.178573 0.178573 0.178573 0.178573 0.178573 0.178573 0.178573 0.178573 
0.178573 0.178573 0.178573 0.178573 0.178573 0.178573 0.178573 0.178573 0.178573 
0.178573 0.178573 0.178573 0.178573 0.178573 0.178573 0.178573 0.178573 0.178573 
0.178573 0.178573 0.178573 0.178573 0.178573 0.178573 0.178573 0.178573 0.178573 
0.178573 0.178573 0.178573 0.178573 0.178573 0.178573 0.178573 0.178573 0.178573 
0.178573 0.178573 0.178573 0.178573 0.178573 0.178573 0.178573 0.178573 0.178573 
0.178573 0.178573 0.178573 0.178573 0.178573 0.178573 0.178573 0.178573 0.178573 
0.178573 0.178573 0.178573 0.178573 0.178573 0.178573 0.178573 0.178573 0.178573 
0.178573 0.178573 0.178573 0.178573 0.178573 0.178573 0.178573 0.178573 0.178573 
0.178573 0.178573 0.178573 0.178573 0.178573 0.178573 0.178573 0.178573 0.178573 
0.178573 0.178573 0.178573 0.178573 0.178573 0.178573 0.178573 0.178573 0.178573 
0.178573 0.178573 0.178573 0.178573 0.178573 0.178573 0.178573 0.178573 0.178573 
0.178573 0.178573 0.178573 0.178573 0.178573 0.178573 0.178573 0.178573 0.178573 
0.178573 0.178573 0.178573 0.178573 0.178573 0.178573 0.178573 0.178573 0.178573 
0.178573 0.178573 0.178573 0.178573 0.178573 0.178573 0.178573 0.178573 0.178573 
0.178573 0.178573 0.178573 0.178573 0.178573 0.178573 0.178573 0.178573 0.178573 
0.178573 0.178573 0.178573 0.178573 0.178573 0.178573 0.178573 0.178573 0.178573 
0.178573 0.178573 0.178573 0.178573 0.178573 0.178573 0.178573 0.178573 0.178573 
0.178573 0.178573 0.178573 0.178573 0.178573 0.178573 0.178573 0.178573 0.178573 
0.178573 0.178573 0.178573 0.178573 0.178573 0.178573 0.178573 0.178573 0.178573 
0.178573 0.178573 0.178573 0.178573 0.178573 0.178573 0.178573 0.178573 0.178573 
0.178573 0.178573 0.178573 0.178573 0.178573 0.178573 0.178573 0.178573 0.178573 
0.178573 0.178573 0.178573 0.178573 0.178573 0.178573 0.178573 0.178573 0.178573 
0.178573 0.178573 0.178573 0.178573 0.178573 0.178573 0.178573 0.178573 0.178573 
0.178573 0.178573 0.178573 0.178573 0.178573 0.178573 0.178573 0.178573 0.178573 
0.178573 0.178573 0.178573 0.178573 0.178573 0.178573 0.178573 0.178573 0.178573 
0.178573 0.178573 0.178573 0.178573 0.178573 0.178573 0.178573 0.178573 0.178573 
0.178573 0.178573 0.178573 0.178573 0.178573 0.178573 0.178573 0.178573 0.178573 
0.178573 0.178573 0.178573 0.178573 0.178573 0.178573 0.178573 0.178573 0.178573 
0.178573 0.178573 0.178573 0.178573 0.178573 0.178573 0.178573 0.178573 0.178573 
0.178573 0.178573 0.178573 0.178573 0.178573 0.178573 0.178573 0.178573 0.178573 
0.178573 0.178573 0.178573 0.178573 0.178573 0.178573 0.178573 0.178573 0.178573 
0.178573 0.178573 0.178573 0.178573 0.178573 0.178573 0.178573 0.178573 0.178573 
0.178573 0.178573 0.178573 0.178573 0.178573 0.178573 0.178573 0.178573 0.178573 
0.178573 0.178573 0.178573 0.178573 0.178573 0.178573 0.178573 0.178573 0.178573 
0.178573 0.178573 0.178573 0.178573 0.178573 0.178573 0.178573 0.178573 0.178573 
0.178573 0.178573 0.178573 0.181085 0.178629 0.178543 0.178592 0.178565 0.178575 
0.178573 0.178573 0.178573 0.178573 0.178573 0.178573 0.178573 0.178573 0.178573 
0.178573 0.178573 0.178573 0.178573 0.178573 0.178573 0.178573 0.178573 0.178573 
0.178573 0.178573 0.178573 0.178573 0.178573 0.178573 0.197405 0.178686 0.178554 
0.178582 0.178571 0.178573 0.178573 0.178573 0.178573 0.178573 0.178573 0.178573 
0.178573 0.178573 0.178573 0.178573 0.178573 0.178573 0.178573 0.178573 0.178573 
0.178573 0.178573 0.178573 0.178573 0.178573 0.178573 0.178573 0.178573 0.178573 
0.181979 0.178593 0.178561 0.178584 0.178566 0.178576 0.178572 0.178573 0.178573 
0.178573 0.178573 0.178573 0.178573 0.178573 0.178573 0.178573 0.178573 0.178573 
0.178573 0.178573 0.178573 0.178573 0.178573 0.178573 0.178573 0.178573 0.178573 
0.178573 0.178573 0.178573 0.179057 0.178542 0.178582 0.178572 0.178571 0.178575 
0.178572 0.178574 0.178573 0.178573 0.178573 0.178573 0.178573 0.178573 0.178573 
0.178573 0.178573 0.178573 0.178573 0.178573 0.178573 0.178573 0.178573 0.178573 
0.178573 0.178573 0.178573 0.178573 0.178573 0.178573 0.178577 0.178572 0.178578 
0.178568 0.178576 0.178572 0.178573 0.178573 0.178573 0.178573 0.178573 0.178573 
0.178573 0.178573 0.178573 0.178573 0.178573 0.178573 0.178573 0.178573 0.178573 
0.178573 0.178573 0.178573 0.178573 0.178573 0.178573 0.178573 0.178573 0.178573 
0.178574 0.178578 0.17857 0.178574 0.178573 0.178572 0.178573 0.178573 0.178573 
0.178573 0.178573 0.178573 0.178573 0.178573 0.178573 0.178573 0.178573 0.178573 
0.178573 0.178573 0.178573 0.178573 0.178573 0.178573 0.178573 0.178573 0.178573 
0.178573 0.178573 0.178573 0.178572 0.17857 0.178574 0.178573 0.178573 0.178573 
0.178573 0.178573 0.178573 0.178573 0.178573 0.178573 0.178573 0.178573 0.178573 
0.178573 0.178573 0.178573 0.178573 0.178573 0.178573 0.178573 0.178573 0.178573 
0.178573 0.178573 0.178573 0.178573 0.178573 0.178573 0.178573 0.178574 0.178573 
0.178573 0.178573 0.178573 0.178573 0.178573 0.178573 0.178573 0.178573 0.178573 
0.178573 0.178573 0.178573 0.178573 0.178573 0.178573 0.178573 0.178573 0.178573 
0.178573 0.178573 0.178573 0.178573 0.178573 0.178573 0.178573 0.178573 0.178573 
0.178573 0.178572 0.178573 0.178573 0.178573 0.178573 0.178573 0.178573 0.178573 
0.178573 0.178573 0.178573 0.178573 0.178573 0.178573 0.178573 0.178573 0.178573 
0.178573 0.178573 0.178573 0.178573 0.178573 0.178573 0.178573 0.178573 0.178573 
0.178573 0.178573 0.178573 0.178573 0.178573 0.178573 0.178573 0.178573 0.178573 
0.178573 0.178573 0.178573 0.178573 0.178573 0.178573 0.178573 0.178573 0.178573 
0.178573 0.178573 0.178573 0.178573 0.178573 0.178573 0.178573 0.178573 0.178573 
0.178573 0.178573 0.178573 0.178573 0.178573 0.178573 0.178573 0.178573 0.178573 
0.178573 0.178573 0.178573 0.178573 0.178573 0.178573 0.178573 0.178573 0.178573 
0.178573 0.178573 0.178573 0.178573 0.178573 0.178573 0.178573 0.178573 0.178573 
0.178573 0.178573 0.178573 0.178573 0.178573 0.178573 0.178573 0.178573 0.178573 
0.178573 0.178573 0.178573 0.178573 0.178573 0.178573 0.178573 0.178573 0.178573 
0.178573 0.178573 0.178573 0.178573 0.178573 0.178573 0.178573 0.178573 0.178573 
0.178573 0.178573 0.178573 0.178573 0.178573 0.178573 0.178573 0.178573 0.178573 
0.178573 0.178573 0.178573 0.178573 0.178573 0.178573 0.178573 0.178573 0.178573 
0.178573 0.178573 0.178573 0.178573 0.178573 0.178573 0.178573 0.178573 0.178573 
0.178573 0.178573 0.178573 0.178573 0.178573 0.178573 0.178573 0.178573 0.178573 
0.178573 0.178573 0.178573 0.178573 0.178573 0.178573 0.178573 0.178573 0.178573 
0.178573 0.178573 0.178573 0.178573 0.178573 0.178573 0.178573 0.178573 0.178573 
0.178573 0.178573 0.178573 0.178573 0.178573 0.178573 0.178573 0.178573 0.178573 
0.178573 0.178573 0.178573 0.178573 0.178573 0.178573 0.178573 0.178573 0.178573 
0.178573 0.178573 0.178573 0.178573 0.178573 0.178573 0.178573 0.178573 0.178573 
0.178573 0.178573 0.178573 0.178573 0.178573 0.178573 0.178573 0.178573 0.178573 
0.178573 0.178573 0.178573 0.178573 0.178573 0.178573 0.178573 0.178573 0.178573 
0.178573 0.178573 0.178573 0.178573 0.178573 0.178573 0.178573 0.178573 0.178573 
0.178573 0.178573 0.178573 0.178573 0.178573 0.178573 0.178573 0.178573 0.178573 
0.178573 0.178573 0.178573 0.178573 0.178573 0.178573 0.178573 0.178573 0.178573 
0.178573 0.178573 0.178573 0.178573 0.178573 0.178573 0.178573 0.178573 0.178573 
0.178573 0.178573 0.178573 0.178573 0.178573 0.178573 0.178573 0.178573 0.178573 
0.178573 0.178573 0.178573 0.178573 0.178573 0.178573 0.178573 0.178573 0.178573 
0.178573 0.178573 0.178573 0.178573 0.178573 0.178573 0.178573 0.178573 0.178573 
0.178573 0.178573 0.178573 0.178573 0.178573 0.178573 0.178573 0.178573 0.178573 
0.178573 0.178573 0.178573 0.178573 0.178573 0.178573 0.178573 0.178573 0.178573 
0.178573 0.178573 0.178573 0.178573 0.178573 0.178573 0.178573 0.178573 0.178573 
0.178573 0.178573 0.178573 0.178573 0.178573 0.178573 0.178573 0.178573 0.178573 
0.178573 0.178573 0.178573 0.178573 0.178573 0.178573 0.178573 0.178573 0.178573 
0.178573 0.178573 0.178573 0.178573 0.178573 0.178573 0.178573 0.178573 0.178573 
0.178573 0.178573 0.178573 0.178573 0.178573 0.178573 0.178573 0.178573 0.178573 
0.178573 0.178573 0.178573 0.178573 0.178573 0.178573 0.178573 0.178573 0.178573 
0.178573 0.178573 0.178573 0.178573 0.178573 0.178573 0.178573 0.178573 0.178573 
0.178573 0.178573 0.178573 0.178573 0.178573 0.178573 0.178573 0.178573 0.178573 
0.178573 0.178573 0.178573 0.178573 0.178573 0.178573 0.178573 0.178573 0.178573 
0.178573 0.178573 0.178573 0.178573 0.178573 0.178573 0.178573 0.178573 0.178573 
0.178573 0.178573 0.178573 0.178573 0.178573 0.178573 0.178573 0.178573 0.178573 
0.178573 0.178573 0.178573 0.178573 0.178573 0.178573 0.178573 0.178573 0.178573 
0.178573 0.178573 0.178573 0.178573 0.178573 0.178573 0.178573 0.178573 0.178573 
0.178573 0.178573 0.178573 0.178573 0.178573 0.178573 0.178573 0.178573 0.178573 
0.178573 0.178573 0.178573 0.178573 0.178573 0.178573 0.178573 0.178573 0.178573 
0.178573 0.178573 0.178573 0.178573 0.178573 0.178573 0.178573 0.178573 0.178573 
0.178573 0.178573 0.178573 0.178573 0.178573 0.178573 0.178573 0.178573 0.178573 
0.178573 0.178573 0.178573 0.178573 0.178573 0.178573 0.178573 0.178573 0.178573 
0.178573 0.178573 0.178573 0.178573 0.178573 0.178573 0.178573 0.178573 0.178573 
0.178573 0.178573 0.178573 0.178573 0.178573 0.178573 0.178573 0.178573 0.178573 
0.178573 0.178573 0.178573 0.178573 0.178573 0.178573 0.178573 0.178573 0.178573 
0.178573 0.178573 0.178573 0.178573 0.178573 0.178573 0.178573 0.178573 0.178573 
0.178573 0.178573 0.178573 0.178573 0.178573 0.178573 0.178573 0.178573 0.178573 
0.178573 0.178573 0.178573 0.178573 0.178573 0.178573 0.178573 0.178573 0.178573 
0.178573 0.178573 0.178573 0.178573 0.178573 0.178573 0.179333 0.178569 0.178554 
0.17859 0.178564 0.178576 0.178572 0.178573 0.178573 0.178573 0.178573 0.178573 
0.178573 0.178573 0.178573 0.178573 0.178573 0.178573 0.178573 0.178573 0.178573 
0.178573 0.178573 0.178573 0.178573 0.178573 0.178573 0.178573 0.178573 0.178573 
0.182795 0.178693 0.178546 0.178586 0.178569 0.178574 0.178573 0.178573 0.178573 
0.178573 0.178573 0.178573 0.178573 0.178573 0.178573 0.178573 0.178573 0.178573 
0.178573 0.178573 0.178573 0.178573 0.178573 0.178573 0.178573 0.178573 0.178573 
0.178573 0.178573 0.178573 0.179591 0.178557 0.178565 0.178582 0.178566 0.178576 
0.178571 0.178573 0.178573 0.178573 0.178573 0.178573 0.178573 0.178573 0.178573 
0.178573 0.178573 0.178573 0.178573 0.178573 0.178573 0.178573 0.178573 0.178573 
0.178573 0.178573 0.178573 0.178573 0.178573 0.178573 0.178706 0.178542 0.178584 
0.17857 0.178572 0.178575 0.178572 0.178574 0.178573 0.178573 0.178573 0.178573 
0.178573 0.178573 0.178573 0.178573 0.178573 0.178573 0.178573 0.178573 0.178573 
0.178573 0.178573 0.178573 0.178573 0.178573 0.178573 0.178573 0.178573 0.178573 
0.17858 0.178573 0.178577 0.178569 0.178575 0.178572 0.178573 0.178573 0.178573 
0.178573 0.178573 0.178573 0.178573 0.178573 0.178573 0.178573 0.178573 0.178573 
0.178573 0.178573 0.178573 0.178573 0.178573 0.178573 0.178573 0.178573 0.178573 
0.178573 0.178573 0.178573 0.178572 0.178577 0.17857 0.178574 0.178573 0.178573 
0.178573 0.178573 0.178573 0.178573 0.178573 0.178573 0.178573 0.178573 0.178573 
0.178573 0.178573 0.178573 0.178573 0.178573 0.178573 0.178573 0.178573 0.178573 
0.178573 0.178573 0.178573 0.178573 0.178573 0.178573 0.178573 0.178571 0.178574 
0.178573 0.178573 0.178573 0.178573 0.178573 0.178573 0.178573 0.178573 0.178573 
0.178573 0.178573 0.178573 0.178573 0.178573 0.178573 0.178573 0.178573 0.178573 
0.178573 0.178573 0.178573 0.178573 0.178573 0.178573 0.178573 0.178573 0.178573 
0.178573 0.178574 0.178573 0.178573 0.178573 0.178573 0.178573 0.178573 0.178573 
0.178573 0.178573 0.178573 0.178573 0.178573 0.178573 0.178573 0.178573 0.178573 
0.178573 0.178573 0.178573 0.178573 0.178573 0.178573 0.178573 0.178573 0.178573 
0.178573 0.178573 0.178573 0.178572 0.178573 0.178573 0.178573 0.178573 0.178573 
0.178573 0.178573 0.178573 0.178573 0.178573 0.178573 0.178573 0.178573 0.178573 
0.178573 0.178573 0.178573 0.178573 0.178573 0.178573 0.178573 0.178573 0.178573 
0.178573 0.178573 0.178573 0.178573 0.178573 0.178573 0.178573 0.178573 0.178573 
0.178573 0.178573 0.178573 0.178573 0.178573 0.178573 0.178573 0.178573 0.178573 
0.178573 0.178573 0.178573 0.178573 0.178573 0.178573 0.178573 0.178573 0.178573 
0.178573 0.178573 0.178573 0.178573 0.178573 0.178573 0.178573 0.178573 0.178573 
0.178573 0.178573 0.178573 0.178573 0.178573 0.178573 0.178573 0.178573 0.178573 
0.178573 0.178573 0.178573 0.178573 0.178573 0.178573 0.178573 0.178573 0.178573 
0.178573 0.178573 0.178573 0.178573 0.178573 0.178573 0.178573 0.178573 0.178573 
0.178573 0.178573 0.178573 0.178573 0.178573 0.178573 0.178573 0.178573 0.178573 
0.178573 0.178573 0.178573 0.178573 0.178573 0.178573 0.178573 0.178573 0.178573 
0.178573 0.178573 0.178573 0.178573 0.178573 0.178573 0.178573 0.178573 0.178573 
0.178573 0.178573 0.178573 0.178573 0.178573 0.178573 0.178573 0.178573 0.178573 
0.178573 0.178573 0.178573 0.178573 0.178573 0.178573 0.178573 0.178573 0.178573 
0.178573 0.178573 0.178573 0.178573 0.178573 0.178573 0.178573 0.178573 0.178573 
0.178573 0.178573 0.178573 0.178573 0.178573 0.178573 0.178573 0.178573 0.178573 
0.178573 0.178573 0.178573 0.178573 0.178573 0.178573 0.178573 0.178573 0.178573 
0.178573 0.178573 0.178573 0.178573 0.178573 0.178573 0.178573 0.178573 0.178573 
0.178573 0.178573 0.178573 0.178573 0.178573 0.178573 0.178573 0.178573 0.178573 
0.178573 0.178573 0.178573 0.178573 0.178573 0.178573 0.178573 0.178573 0.178573 
0.178573 0.178573 0.178573 0.178573 0.178573 0.178573 0.178573 0.178573 0.178573 
0.178573 0.178573 0.178573 0.178573 0.178573 0.178573 0.178573 0.178573 0.178573 
0.178573 0.178573 0.178573 0.178573 0.178573 0.178573 0.178573 0.178573 0.178573 
0.178573 0.178573 0.178573 0.178573 0.178573 0.178573 0.178573 0.178573 0.178573 
0.178573 0.178573 0.178573 0.178573 0.178573 0.178573 0.178573 0.178573 0.178573 
0.178573 0.178573 0.178573 0.178573 0.178573 0.178573 0.178573 0.178573 0.178573 
0.178573 0.178573 0.178573 0.178573 0.178573 0.178573 0.178573 0.178573 0.178573 
0.178573 0.178573 0.178573 0.178573 0.178573 0.178573 0.178573 0.178573 0.178573 
0.178573 0.178573 0.178573 0.178573 0.178573 0.178573 0.178573 0.178573 0.178573 
0.178573 0.178573 0.178573 0.178573 0.178573 0.178573 0.178573 0.178573 0.178573 
0.178573 0.178573 0.178573 0.178573 0.178573 0.178573 0.178573 0.178573 0.178573 
0.178573 0.178573 0.178573 0.178573 0.178573 0.178573 0.178573 0.178573 0.178573 
0.178573 0.178573 0.178573 0.178573 0.178573 0.178573 0.178573 0.178573 0.178573 
0.178573 0.178573 0.178573 0.178573 0.178573 0.178573 0.178573 0.178573 0.178573 
0.178573 0.178573 0.178573 0.178573 0.178573 0.178573 0.178573 0.178573 0.178573 
0.178573 0.178573 0.178573 0.178573 0.178573 0.178573 0.178573 0.178573 0.178573 
0.178573 0.178573 0.178573 0.178573 0.178573 0.178573 0.178573 0.178573 0.178573 
0.178573 0.178573 0.178573 0.178573 0.178573 0.178573 0.178573 0.178573 0.178573 
0.178573 0.178573 0.178573 0.178573 0.178573 0.178573 0.178573 0.178573 0.178573 
0.178573 0.178573 0.178573 0.178573 0.178573 0.178573 0.178573 0.178573 0.178573 
0.178573 0.178573 0.178573 0.178573 0.178573 0.178573 0.178573 0.178573 0.178573 
0.178573 0.178573 0.178573 0.178573 0.178573 0.178573 0.178573 0.178573 0.178573 
0.178573 0.178573 0.178573 0.178573 0.178573 0.178573 0.178573 0.178573 0.178573 
0.178573 0.178573 0.178573 0.178573 0.178573 0.178573 0.178573 0.178573 0.178573 
0.178573 0.178573 0.178573 0.178573 0.178573 0.178573 0.178573 0.178573 0.178573 
0.178573 0.178573 0.178573 0.178573 0.178573 0.178573 0.178573 0.178573 0.178573 
0.178573 0.178573 0.178573 0.178573 0.178573 0.178573 0.178573 0.178573 0.178573 
0.178573 0.178573 0.178573 0.178573 0.178573 0.178573 0.178573 0.178573 0.178573 
0.178573 0.178573 0.178573 0.178573 0.178573 0.178573 0.178573 0.178573 0.178573 