# vtk DataFile Version 5.1
vtk output
ASCII
DATASET STRUCTURED_GRID
DIMENSIONS 13 42 24
POINTS 13104 float
5.13954 0.245046 -0.148191 5.13955 0.248046 -0.148191 5.13956 0.251544 -0.148191 
5.13957 0.255616 -0.148191 5.13958 0.26035 -0.148191 5.1396 0.265846 -0.148191 
5.13962 0.272214 -0.148191 5.13964 0.279574 -0.148191 5.13966 0.288061 -0.148191 
5.13969 0.297816 -0.148191 5.13972 0.30899 -0.148191 5.13976 0.321739 -0.148191 
5.1398 0.336217 -0.148191 5.17987 0.239059 -0.148191 5.17987 0.242059 -0.148191 
5.17988 0.245558 -0.148191 5.17989 0.249633 -0.148191 5.17991 0.254374 -0.148191 
5.17992 0.25988 -0.148191 5.17994 0.266262 -0.148191 5.17996 0.273642 -0.148191 
5.17998 0.282156 -0.148191 5.18001 0.291947 -0.148191 5.18004 0.303168 -0.148191 
5.18007 0.315976 -0.148191 5.18011 0.330529 -0.148191 5.22022 0.233068 -0.148191 
5.22023 0.236068 -0.148191 5.22024 0.239568 -0.148191 5.22025 0.243647 -0.148191 
5.22026 0.248394 -0.148191 5.22027 0.25391 -0.148191 5.22029 0.260305 -0.148191 
5.22031 0.267706 -0.148191 5.22033 0.276247 -0.148191 5.22035 0.286074 -0.148191 
5.22038 0.297342 -0.148191 5.22041 0.31021 -0.148191 5.22045 0.324838 -0.148191 
5.2606 0.227073 -0.148191 5.26061 0.230073 -0.148191 5.26061 0.233574 -0.148191 
5.26062 0.237657 -0.148191 5.26063 0.24241 -0.148191 5.26065 0.247936 -0.148191 
5.26066 0.254346 -0.148191 5.26068 0.261766 -0.148191 5.2607 0.270334 -0.148191 
5.26072 0.280197 -0.148191 5.26075 0.291512 -0.148191 5.26078 0.30444 -0.148191 
5.26081 0.319143 -0.148191 5.301 0.221074 -0.148191 5.30101 0.224074 -0.148191 
5.30101 0.227577 -0.148191 5.30102 0.231664 -0.148191 5.30103 0.236423 -0.148191 
5.30104 0.241958 -0.148191 5.30106 0.248382 -0.148191 5.30107 0.255823 -0.148191 
5.30109 0.264418 -0.148191 5.30111 0.274317 -0.148191 5.30114 0.285679 -0.148191 
5.30117 0.298667 -0.148191 5.3012 0.313445 -0.148191 5.34142 0.215073 -0.148191 
5.34143 0.218073 -0.148191 5.34144 0.221577 -0.148191 5.34144 0.225667 -0.148191 
5.34145 0.230433 -0.148191 5.34146 0.235977 -0.148191 5.34148 0.242416 -0.148191 
5.34149 0.249877 -0.148191 5.34151 0.258499 -0.148191 5.34153 0.268434 -0.148191 
5.34155 0.279843 -0.148191 5.34157 0.29289 -0.148191 5.3416 0.307745 -0.148191 
5.38186 0.209068 -0.148191 5.38187 0.212068 -0.148191 5.38187 0.215575 -0.148191 
5.38188 0.219668 -0.148191 5.38189 0.22444 -0.148191 5.3819 0.229994 -0.148191 
5.38191 0.236447 -0.148191 5.38192 0.243928 -0.148191 5.38194 0.252577 -0.148191 
5.38195 0.262549 -0.148191 5.38197 0.274004 -0.148191 5.38199 0.287112 -0.148191 
5.38202 0.302041 -0.148191 5.42232 0.203062 -0.148191 5.42232 0.206062 -0.148191 
5.42233 0.209569 -0.148191 5.42234 0.213666 -0.148191 5.42234 0.218445 -0.148191 
5.42235 0.224009 -0.148191 5.42236 0.230476 -0.148191 5.42237 0.237977 -0.148191 
5.42238 0.246653 -0.148191 5.4224 0.256661 -0.148191 5.42241 0.268163 -0.148191 
5.42243 0.281331 -0.148191 5.42245 0.296335 -0.148191 5.46279 0.197053 -0.148191 
5.46279 0.200053 -0.148191 5.4628 0.203563 -0.148191 5.4628 0.207663 -0.148191 
5.46281 0.212447 -0.148191 5.46281 0.218021 -0.148191 5.46282 0.224503 -0.148191 
5.46283 0.232024 -0.148191 5.46284 0.240728 -0.148191 5.46285 0.250771 -0.148191 
5.46287 0.26232 -0.148191 5.46288 0.275548 -0.148191 5.4629 0.290628 -0.148191 
5.50327 0.191043 -0.148191 5.50327 0.194043 -0.148191 5.50327 0.197554 -0.148191 
5.50328 0.201658 -0.148191 5.50328 0.206448 -0.148191 5.50329 0.212032 -0.148191 
5.50329 0.218528 -0.148191 5.5033 0.226069 -0.148191 5.50331 0.2348 -0.148191 
5.50332 0.24488 -0.148191 5.50333 0.256476 -0.148191 5.50334 0.269763 -0.148191 
5.50335 0.284919 -0.148191 5.54376 0.185032 -0.148191 5.54376 0.188032 -0.148191 
5.54376 0.191544 -0.148191 5.54376 0.195651 -0.148191 5.54377 0.200448 -0.148191 
5.54377 0.206042 -0.148191 5.54378 0.212552 -0.148191 5.54378 0.220113 -0.148191 
5.54379 0.228871 -0.148191 5.54379 0.238987 -0.148191 5.5438 0.25063 -0.148191 
5.54381 0.263978 -0.148191 5.54382 0.279209 -0.148191 5.58425 0.179019 -0.148191 
5.58425 0.182019 -0.148191 5.58425 0.185533 -0.148191 5.58426 0.189644 -0.148191 
5.58426 0.194447 -0.148191 5.58426 0.200051 -0.148191 5.58426 0.206575 -0.148191 
5.58427 0.214156 -0.148191 5.58427 0.222942 -0.148191 5.58427 0.233094 -0.148191 
5.58428 0.244784 -0.148191 5.58428 0.258191 -0.148191 5.58429 0.273498 -0.148191 
5.62475 0.173006 -0.148191 5.62475 0.176007 -0.148191 5.62475 0.179522 -0.148191 
5.62475 0.183636 -0.148191 5.62475 0.188446 -0.148191 5.62475 0.194059 -0.148191 
5.62475 0.200598 -0.148191 5.62475 0.208199 -0.148191 5.62476 0.217012 -0.148191 
5.62476 0.227199 -0.148191 5.62476 0.238936 -0.148191 5.62476 0.252404 -0.148191 
5.62476 0.267786 -0.148191 5.66525 0.166993 -0.148191 5.66525 0.169993 -0.148191 
5.66525 0.17351 -0.148191 5.66525 0.177628 -0.148191 5.66525 0.182444 -0.148191 
5.66525 0.188067 -0.148191 5.66525 0.19462 -0.148191 5.66524 0.202241 -0.148191 
5.66524 0.211081 -0.148191 5.66524 0.221305 -0.148191 5.66524 0.233089 -0.148191 
5.66524 0.246617 -0.148191 5.66524 0.262075 -0.148191 5.70575 0.160981 -0.148191 
5.70575 0.163981 -0.148191 5.70575 0.167499 -0.148191 5.70574 0.171621 -0.148191 
5.70574 0.176443 -0.148191 5.70574 0.182075 -0.148191 5.70574 0.188643 -0.148191 
5.70573 0.196284 -0.148191 5.70573 0.205151 -0.148191 5.70573 0.215411 -0.148191 
5.70572 0.227242 -0.148191 5.70572 0.24083 -0.148191 5.70571 0.256363 -0.148191 
5.74624 0.154968 -0.148191 5.74624 0.157968 -0.148191 5.74624 0.161488 -0.148191 
5.74624 0.165613 -0.148191 5.74623 0.170441 -0.148191 5.74623 0.176084 -0.148191 
5.74622 0.182666 -0.148191 5.74622 0.190327 -0.148191 5.74621 0.199221 -0.148191 
5.74621 0.209518 -0.148191 5.7462 0.221396 -0.148191 5.74619 0.235043 -0.148191 
5.74618 0.250652 -0.148191 5.78673 0.148957 -0.148191 5.78673 0.151957 -0.148191 
5.78672 0.155478 -0.148191 5.78672 0.159607 -0.148191 5.78672 0.164441 -0.148191 
5.78671 0.170094 -0.148191 5.78671 0.17669 -0.148191 5.7867 0.184371 -0.148191 
5.78669 0.193293 -0.148191 5.78668 0.203625 -0.148191 5.78667 0.21555 -0.148191 
5.78666 0.229258 -0.148191 5.78665 0.244942 -0.148191 5.82721 0.142947 -0.148191 
5.82721 0.145947 -0.148191 5.82721 0.14947 -0.148191 5.8272 0.153602 -0.148191 
5.82719 0.158443 -0.148191 5.82719 0.164104 -0.148191 5.82718 0.170715 -0.148191 
5.82717 0.178416 -0.148191 5.82716 0.187365 -0.148191 5.82715 0.197734 -0.148191 
5.82714 0.209706 -0.148191 5.82712 0.223473 -0.148191 5.82711 0.239233 -0.148191 
5.86768 0.136938 -0.148191 5.86768 0.139938 -0.148191 5.86767 0.143462 -0.148191 
5.86767 0.147598 -0.148191 5.86766 0.152445 -0.148191 5.86765 0.158117 -0.148191 
5.86764 0.164742 -0.148191 5.86763 0.172463 -0.148191 5.86762 0.181439 -0.148191 
5.86761 0.191844 -0.148191 5.86759 0.203863 -0.148191 5.86757 0.21769 -0.148191 
5.86755 0.233525 -0.148191 5.90814 0.130932 -0.148191 5.90813 0.133932 -0.148191 
5.90813 0.137458 -0.148191 5.90812 0.141597 -0.148191 5.90811 0.14645 -0.148191 
5.9081 0.152131 -0.148191 5.90809 0.158771 -0.148191 5.90808 0.166512 -0.148191 
5.90807 0.175515 -0.148191 5.90805 0.185956 -0.148191 5.90804 0.198022 -0.148191 
5.90801 0.211909 -0.148191 5.90799 0.22782 -0.148191 5.94858 0.124927 -0.148191 
5.94857 0.127927 -0.148191 5.94857 0.131455 -0.148191 5.94856 0.135598 -0.148191 
5.94855 0.140457 -0.148191 5.94854 0.146148 -0.148191 5.94853 0.152802 -0.148191 
5.94852 0.160563 -0.148191 5.9485 0.169594 -0.148191 5.94848 0.18007 -0.148191 
5.94846 0.192183 -0.148191 5.94844 0.206131 -0.148191 5.94841 0.222116 -0.148191 
5.989 0.118926 -0.148191 5.98899 0.121926 -0.148191 5.98899 0.125455 -0.148191 
5.98898 0.129601 -0.148191 5.98897 0.134467 -0.148191 5.98896 0.140168 -0.148191 
5.98895 0.146835 -0.148191 5.98893 0.154617 -0.148191 5.98891 0.163675 -0.148191 
5.9889 0.174187 -0.148191 5.98887 0.186347 -0.148191 5.98885 0.200354 -0.148191 
5.98881 0.216415 -0.148191 6.0294 0.112927 -0.148191 6.0294 0.115927 -0.148191 
6.02939 0.119458 -0.148191 6.02938 0.123608 -0.148191 6.02937 0.12848 -0.148191 
6.02936 0.13419 -0.148191 6.02934 0.140872 -0.148191 6.02933 0.148673 -0.148191 
6.02931 0.157759 -0.148191 6.02929 0.168307 -0.148191 6.02926 0.180514 -0.148191 
6.02923 0.194581 -0.148191 6.0292 0.210717 -0.148191 6.06978 0.106932 -0.148191 
6.06977 0.109932 -0.148191 6.06977 0.113464 -0.148191 6.06976 0.117618 -0.148191 
6.06975 0.122496 -0.148191 6.06973 0.128216 -0.148191 6.06972 0.134912 -0.148191 
6.0697 0.142734 -0.148191 6.06968 0.151846 -0.148191 6.06966 0.162431 -0.148191 
6.06963 0.174684 -0.148191 6.0696 0.188811 -0.148191 6.06957 0.205022 -0.148191 
6.11013 0.100941 -0.148191 6.11013 0.103941 -0.148191 6.11012 0.107474 -0.148191 
6.11011 0.111631 -0.148191 6.1101 0.116516 -0.148191 6.11008 0.122246 -0.148191 
6.11007 0.128956 -0.148191 6.11005 0.136797 -0.148191 6.11003 0.145937 -0.148191 
6.11 0.156558 -0.148191 6.10998 0.168858 -0.148191 6.10994 0.183044 -0.148191 
6.10991 0.199331 -0.148191 6.15046 0.0949536 -0.148191 6.15045 0.0979536 -0.148191 
6.15044 0.101488 -0.148191 6.15043 0.105649 -0.148191 6.15042 0.11054 -0.148191 
6.15041 0.11628 -0.148191 6.15039 0.123004 -0.148191 6.15037 0.130865 -0.148191 
6.15035 0.140032 -0.148191 6.15033 0.150689 -0.148191 6.1503 0.163035 -0.148191 
6.15026 0.177282 -0.148191 6.15022 0.193644 -0.148191 6.19076 0.0889708 -0.148191 
6.19075 0.0919708 -0.148191 6.19074 0.0955071 -0.148191 6.19073 0.0996712 -0.148191 
6.19072 0.104568 -0.148191 6.1907 0.110318 -0.148191 6.19069 0.117057 -0.148191 
6.19067 0.124938 -0.148191 6.19064 0.134131 -0.148191 6.19062 0.144824 -0.148191 
6.19059 0.157218 -0.148191 6.19055 0.171524 -0.148191 6.19051 0.187961 -0.148191 
6.23102 0.0829928 -0.148191 6.23101 0.0859928 -0.148191 6.231 0.0895306 -0.148191 
6.23099 0.0936982 -0.148191 6.23098 0.0986013 -0.148191 6.23096 0.104361 -0.148191 
6.23095 0.111114 -0.148191 6.23093 0.119015 -0.148191 6.23091 0.128236 -0.148191 
6.23088 0.138964 -0.148191 6.23085 0.151404 -0.148191 6.23081 0.16577 -0.148191 
[...]
POINT_DATA 13104
FIELD FieldData 5
pressure 1 13104 float
0.132377 0.132377 0.132029 0.131889 0.131548 0.130401 0.12964 0.127876 0.12595 
0.123309 0.120813 0.118683 0.118431 0.135324 0.135324 0.135166 0.135467 0.135758 
0.136262 0.136987 0.137645 0.138513 0.139277 0.13999 0.139866 0.138347 0.144147 
0.144147 0.143982 0.144259 0.14432 0.144677 0.145053 0.145716 0.146633 0.148072 
0.149764 0.151383 0.151802 0.152356 0.152356 0.152159 0.152371 0.152454 0.152725 
0.153165 0.153634 0.154465 0.155511 0.157102 0.158648 0.159656 0.159124 0.159124 
0.15917 0.159205 0.159414 0.159663 0.159966 0.160524 0.161023 0.161875 0.162659 
0.163833 0.164597 0.164864 0.164864 0.164684 0.164977 0.164947 0.165303 0.165546 
0.165898 0.166476 0.166908 0.167713 0.168265 0.169179 0.169501 0.169501 0.169559 
0.169511 0.169885 0.169969 0.170391 0.170716 0.1712 0.171818 0.172328 0.17333 
0.174271 0.173778 0.173778 0.173627 0.173764 0.173705 0.174149 0.17424 0.174826 
0.175241 0.176009 0.177124 0.178286 0.18027 0.177771 0.177771 0.177673 0.177596 
0.17767 0.177622 0.178067 0.178224 0.179041 0.179709 0.180936 0.182369 0.183878 
0.180979 0.180979 0.180987 0.180832 0.180812 0.180796 0.180759 0.181177 0.181352 
0.182177 0.182758 0.183622 0.184661 0.183376 0.183376 0.183488 0.183391 0.183245 
0.18317 0.18306 0.183013 0.183254 0.183312 0.183635 0.183222 0.182716 0.185055 
0.185055 0.185122 0.185119 0.184938 0.184764 0.184592 0.184317 0.184121 0.183849 
0.183382 0.18249 0.180843 0.186092 0.186092 0.186287 0.186214 0.186105 0.18591 
0.185593 0.185394 0.184857 0.184462 0.183596 0.182082 0.179688 0.186925 0.186925 
0.187174 0.187144 0.187065 0.186837 0.186743 0.186299 0.18601 0.185214 0.184318 
0.18269 0.180187 0.188047 0.188047 0.188286 0.188407 0.188154 0.188184 0.187869 
0.187727 0.187226 0.186698 0.185657 0.184322 0.181827 0.189081 0.189081 0.189499 
0.18951 0.18953 0.18931 0.189287 0.189001 0.188714 0.188176 0.187397 0.186158 
0.183947 0.190458 0.190458 0.190882 0.191056 0.190899 0.190943 0.190735 0.190639 
0.190336 0.189938 0.189193 0.188244 0.186401 0.191768 0.191768 0.192262 0.192369 
0.192383 0.19231 0.192309 0.192166 0.191999 0.191698 0.19113 0.190304 0.189013 
0.193419 0.193419 0.193882 0.194053 0.193959 0.19399 0.193931 0.193883 0.193767 
0.193545 0.193105 0.192534 0.191332 0.195024 0.195024 0.195497 0.195602 0.195571 
0.195536 0.195527 0.19553 0.195453 0.195414 0.195093 0.194729 0.193942 0.196929 
0.196929 0.197321 0.197478 0.197308 0.197303 0.197256 0.19721 0.197236 0.197124 
0.197031 0.19679 0.196111 0.198655 0.198655 0.199109 0.1991 0.199057 0.19893 
0.198894 0.198873 0.198806 0.198893 0.198717 0.198798 0.198279 0.200655 0.200655 
0.20095 0.201046 0.200791 0.20077 0.200632 0.200571 0.20055 0.200441 0.200458 
0.200367 0.200037 0.202323 0.202323 0.202766 0.202615 0.20256 0.202348 0.202308 
0.202194 0.202114 0.202113 0.201943 0.201954 0.201682 0.204265 0.204265 0.204456 
0.204456 0.204175 0.204139 0.203932 0.203867 0.20375 0.203635 0.203557 0.203444 
0.2032 0.205802 0.205802 0.206064 0.205844 0.205778 0.205524 0.205481 0.205295 
0.205224 0.205127 0.204985 0.204824 0.204577 0.207505 0.207505 0.2074 0.207356 
0.207087 0.207051 0.206803 0.206749 0.206571 0.20648 0.206353 0.206256 0.206008 
0.208665 0.208665 0.208599 0.208406 0.208352 0.208092 0.208057 0.207826 0.207766 
0.207609 0.207508 0.207397 0.207043 0.209835 0.209835 0.209525 0.209487 0.209261 
0.209241 0.20899 0.208947 0.208724 0.208642 0.208467 0.208346 0.208032 0.210531 
0.210531 0.210353 0.210198 0.21017 0.209949 0.209929 0.209699 0.209639 0.209433 
0.209327 0.209137 0.20875 0.211296 0.211296 0.210999 0.210974 0.210792 0.210796 
0.210587 0.210558 0.210338 0.210247 0.210016 0.209821 0.209429 0.211801 0.211801 
0.211646 0.211496 0.211495 0.21131 0.211314 0.21112 0.211069 0.210852 0.210711 
0.210427 0.210026 0.212463 0.212463 0.212178 0.212165 0.211989 0.212022 0.211839 
0.211838 0.211642 0.211558 0.211306 0.211074 0.210634 0.212895 0.212895 0.212779 
0.21261 0.212628 0.21244 0.212474 0.212288 0.212269 0.212053 0.21192 0.211597 
0.211213 0.213549 0.213549 0.213277 0.213267 0.213074 0.213119 0.212917 0.212947 
0.21274 0.212696 0.212434 0.212229 0.211764 0.213978 0.213978 0.213882 0.213696 
0.213709 0.213495 0.213537 0.213322 0.21334 0.213104 0.213029 0.212692 0.212384 
0.214666 0.214666 0.214387 0.214375 0.214147 0.214199 0.213971 0.214018 0.213794 
0.213793 0.213526 0.213394 0.212952 0.215158 0.215158 0.215062 0.214835 0.21485 
0.214619 0.214674 0.214473 0.214504 0.214306 0.214265 0.213968 0.213751 0.215985 
0.215985 0.215638 0.215665 0.215411 0.215495 0.215301 0.215369 0.215224 0.215235 
0.215082 0.21497 0.214666 0.216513 0.216513 0.216395 0.216194 0.216219 0.216059 
0.216126 0.216045 0.216092 0.21606 0.216056 0.215996 0.215886 0.217175 0.217175 
0.217132 0.217148 0.217013 0.217087 0.217052 0.217106 0.217169 0.217212 0.217343 
0.2174 0.21763 0.217738 0.217738 0.217642 0.217586 0.217601 0.217588 0.217623 
0.217684 0.217754 0.217896 0.218125 0.218353 0.218608 0.134088 0.134088 0.133314 
0.13355 0.132891 0.132485 0.131226 0.130098 0.127887 0.125638 0.122861 0.120813 
0.120058 0.135132 0.135132 0.134887 0.135234 0.135358 0.135959 0.136535 0.137315 
0.138192 0.139195 0.13991 0.139738 0.137244 0.144384 0.144384 0.14409 0.144335 
0.14423 0.144438 0.144515 0.144854 0.145415 0.146412 0.147509 0.148296 0.148195 
0.153293 0.153293 0.152932 0.153007 0.153 0.153045 0.153145 0.153148 0.153313 
0.153498 0.154085 0.154658 0.155847 0.160899 0.160899 0.160474 0.160546 0.160436 
0.160574 0.160568 0.160713 0.160668 0.160775 0.160758 0.161065 0.162237 0.166955 
0.166955 0.166547 0.166458 0.166471 0.166454 0.166605 0.166663 0.166917 0.166919 
0.167073 0.167104 0.168412 0.171892 0.171892 0.171399 0.171349 0.171185 0.171278 
0.171255 0.171485 0.171649 0.172015 0.172239 0.172781 0.174633 0.175406 0.175406 
0.175152 0.174923 0.174891 0.174804 0.174907 0.175017 0.175377 0.175784 0.176606 
0.177561 0.180305 0.178574 0.178574 0.178387 0.178355 0.17818 0.178142 0.178108 
0.178248 0.178561 0.179089 0.180013 0.181376 0.184365 0.180983 0.180983 0.180934 
0.180891 0.18089 0.180795 0.180782 0.180843 0.180965 0.181458 0.182193 0.183455 
0.186638 0.182552 0.182552 0.18283 0.182734 0.182829 0.182757 0.182739 0.182718 
0.182776 0.182791 0.183119 0.183376 0.185556 0.183771 0.183771 0.183859 0.1841 
0.183927 0.184058 0.1839 0.183837 0.18367 0.183431 0.183188 0.182673 0.183678 
0.184224 0.184224 0.184544 0.18454 0.184714 0.184601 0.184665 0.184492 0.184255 
0.183898 0.183346 0.182381 0.182501 0.185222 0.185222 0.185536 0.185607 0.185616 
0.185689 0.185692 0.185692 0.185542 0.185267 0.184705 0.18361 0.183367 0.186377 
0.186377 0.186642 0.186812 0.186751 0.186827 0.18682 0.186795 0.186737 0.186363 
0.185896 0.184638 0.184457 0.187561 0.187561 0.187941 0.188031 0.188023 0.188022 
0.188005 0.188036 0.187874 0.187818 0.187221 0.186751 0.185805 0.189073 0.189073 
0.189483 0.18963 0.189605 0.18958 0.189582 0.189476 0.189507 0.189222 0.189086 
0.188257 0.188151 0.190642 0.190642 0.191134 0.19129 0.191219 0.191276 0.191167 
0.19121 0.191016 0.191062 0.190623 0.190687 0.189787 0.192431 0.192431 0.192988 
0.193159 0.193129 0.193071 0.193121 0.192986 0.193014 0.192819 0.192739 0.19255 
0.192354 0.194285 0.194285 0.194946 0.195106 0.195042 0.195099 0.194998 0.195079 
0.194899 0.194994 0.194685 0.195271 0.194436 0.196207 0.196207 0.196963 0.197126 
0.197093 0.19705 0.197117 0.197025 0.197108 0.196983 0.196992 0.197313 0.197031 
0.198278 0.198278 0.199061 0.19919 0.199137 0.199174 0.199112 0.199181 0.199072 
0.199192 0.198981 0.199969 0.198976 0.200278 0.200278 0.201075 0.201183 0.20118 
0.201142 0.2012 0.20116 0.201238 0.20121 0.201281 0.20192 0.201326 0.202482 
0.202482 0.203182 0.20327 0.203221 0.203261 0.203217 0.203277 0.203232 0.203349 
0.203271 0.204566 0.203338 0.204453 0.204453 0.205134 0.205172 0.205201 0.205173 
0.205239 0.205239 0.205319 0.205367 0.205492 0.206379 0.205595 0.206612 0.206612 
0.207146 0.207189 0.207153 0.207207 0.207195 0.207277 0.207293 0.207432 0.207465 
0.208823 0.207679 0.208462 0.208462 0.208975 0.208978 0.209024 0.20902 0.209108 
0.209155 0.209269 0.209389 0.209574 0.210443 0.209759 0.210343 0.210343 0.210708 
0.21074 0.210724 0.210807 0.210837 0.210957 0.211047 0.211234 0.211377 0.212496 
0.211756 0.211751 0.211751 0.212103 0.212096 0.212188 0.212214 0.212343 0.212436 
0.2126 0.212784 0.213024 0.213681 0.213252 0.212946 0.212946 0.213127 0.213228 
0.21323 0.213374 0.213438 0.213615 0.213755 0.213991 0.214189 0.214968 0.214558 
0.213602 0.213602 0.213816 0.213822 0.213979 0.214023 0.214222 0.214344 0.214583 
0.214804 0.215093 0.215577 0.215306 0.214089 0.214089 0.214115 0.214287 0.214292 
0.214501 0.214571 0.214823 0.214981 0.215289 0.215522 0.216106 0.215832 0.214151 
0.214151 0.214324 0.214333 0.214526 0.214561 0.214809 0.214916 0.215217 0.21543 
0.215774 0.216171 0.216034 0.214327 0.214327 0.214307 0.214477 0.214478 0.214703 
0.214747 0.215026 0.215147 0.215487 0.215704 0.216193 0.216059 0.214263 0.214263 
0.214362 0.214376 0.214542 0.214569 0.214808 0.214875 0.215179 0.21533 0.215685 
0.215992 0.216023 0.214414 0.214414 0.214359 0.21448 0.214487 0.214671 0.2147 
0.214948 0.215023 0.21534 0.215504 0.215922 0.215925 0.21452 0.21452 0.214532 
0.214553 0.214665 0.214693 0.214875 0.214921 0.215178 0.21528 0.215609 0.215841 
0.215994 0.21488 0.21488 0.214796 0.214875 0.214882 0.215009 0.215034 0.215212 
0.21527 0.215525 0.215658 0.216033 0.216124 0.21536 0.21536 0.215317 0.215335 
0.215406 0.215436 0.215557 0.215587 0.215778 0.215835 0.216137 0.216337 0.216613 
0.215949 0.215949 0.215821 0.215871 0.215875 0.215969 0.215979 0.216106 0.21611 
0.216348 0.21646 0.216864 0.217089 0.21682 0.21682 0.216699 0.21673 0.216754 
0.216811 0.216896 0.216947 0.217075 0.217148 0.217375 0.217633 0.21804 0.217231 
0.217231 0.217066 0.217059 0.217017 0.21705 0.217064 0.217165 0.217242 0.217464 
0.217599 0.218052 0.218093 0.134741 0.134741 0.134438 0.134414 0.134322 0.133549 
0.133162 0.13173 0.130244 0.127967 0.125757 0.123505 0.122696 0.136666 0.136666 
0.136386 0.136655 0.136831 0.137285 0.137879 0.138518 0.139397 0.140234 0.140931 
0.14061 0.138264 0.145291 0.145291 0.145019 0.145174 0.145207 0.14535 0.145595 
0.145905 0.146553 0.147363 0.148385 0.148977 0.149118 0.153193 0.153193 0.152827 
0.152935 0.1528 0.152942 0.152982 0.153221 0.153406 0.153853 0.154354 0.155181 
0.156608 0.160072 0.160072 0.159749 0.159669 0.159684 0.159635 0.159748 0.159764 
0.160032 0.160172 0.160649 0.161217 0.163226 0.166083 0.166083 0.165572 0.165619 
0.165358 0.16551 0.165433 0.165675 0.165773 0.166183 0.166507 0.167227 0.169244 
0.170881 0.170881 0.170562 0.170249 0.170339 0.170118 0.170342 0.17034 0.170748 
0.170971 0.171664 0.172401 0.174747 0.174877 0.174877 0.174393 0.174329 0.173986 
0.174086 0.173914 0.174208 0.174358 0.174924 0.175484 0.176565 0.178996 0.177926 
0.177926 0.177774 0.177523 0.177463 0.177207 0.177284 0.177247 0.177577 0.177867 
0.178691 0.179596 0.182536 0.180227 0.180227 0.180258 0.180207 0.180067 0.180005 
0.179839 0.179883 0.18 0.180339 0.180897 0.181796 0.18472 0.182228 0.182228 
0.182281 0.18238 0.182285 0.182256 0.182159 0.182082 0.182068 0.182135 0.182389 
0.182578 0.184368 0.183113 0.183113 0.183467 0.183412 0.183587 0.183452 0.183455 
0.183295 0.183125 0.182961 0.182657 0.182202 0.183338 0.18395 0.18395 0.184191 
0.184365 0.184276 0.18442 0.184252 0.184248 0.184002 0.183695 0.183232 0.182345 
0.182649 0.185028 0.185028 0.185382 0.185446 0.185556 0.185526 0.185663 0.185524 
0.185528 0.1852 0.184875 0.183917 0.184053 0.186158 0.186158 0.186556 0.186665 
0.186663 0.186772 0.186708 0.186845 0.186602 0.18651 0.185947 0.185076 0.18419 
0.187381 0.187381 0.187835 0.187967 0.188008 0.188004 0.18807 0.187948 0.188028 
0.187629 0.187367 0.186282 0.186197 0.188868 0.188868 0.189362 0.189555 0.189515 
0.189625 0.189528 0.189629 0.189391 0.189437 0.188827 0.18887 0.187478 0.190479 
0.190479 0.191077 0.19123 0.191312 0.19125 0.19137 0.191203 0.191283 0.190978 
0.190888 0.190376 0.189809 0.192251 0.192251 0.192861 0.19311 0.193031 0.193203 
0.19306 0.193211 0.192959 0.193037 0.19256 0.193136 0.191472 0.194057 0.194057 
0.194844 0.195013 0.195085 0.194995 0.195177 0.194998 0.19515 0.194906 0.194914 
0.195073 0.194313 0.19607 0.19607 0.196847 0.197087 0.196991 0.197155 0.197007 
0.197196 0.196963 0.197135 0.196784 0.198036 0.196194 0.197986 0.197986 0.198928 
0.199068 0.199146 0.199038 0.199218 0.199051 0.199232 0.199029 0.199173 0.199769 
0.198775 0.200202 0.200202 0.200999 0.20122 0.20111 0.20127 0.201119 0.201292 
0.201085 0.201275 0.200996 0.202754 0.200564 0.20212 0.20212 0.203044 0.203131 
0.203247 0.20312 0.203307 0.203149 0.203326 0.203156 0.203369 0.204204 0.203041 
0.204323 0.204323 0.205043 0.205239 0.205115 0.205301 0.205147 0.205338 0.205153 
0.205357 0.205122 0.206999 0.204907 0.206157 0.206157 0.206989 0.207023 0.207163 
0.207035 0.207253 0.207115 0.207329 0.207196 0.207488 0.208328 0.207357 0.208223 
0.208223 0.208852 0.209009 0.208893 0.209089 0.208965 0.209198 0.209066 0.209334 
0.20918 0.210776 0.209266 0.209814 0.209814 0.210547 0.210554 0.210702 0.210609 
0.210838 0.210756 0.211017 0.210952 0.211339 0.211891 0.211322 0.21148 0.21148 
0.211986 0.212129 0.212051 0.212254 0.212188 0.212444 0.212393 0.21272 0.212666 
0.213809 0.212933 0.212514 0.212514 0.213082 0.213084 0.213268 0.213221 0.213467 
0.213446 0.21374 0.213746 0.214181 0.214428 0.214142 0.213447 0.213447 0.213801 
0.21397 0.213925 0.214165 0.214144 0.214431 0.21444 0.214804 0.214805 0.215617 
0.21508 0.213798 0.213798 0.214278 0.214274 0.214498 0.214483 0.21476 0.214775 
0.215101 0.215151 0.215575 0.215713 0.215539 0.214229 0.214229 0.214455 0.214641 
0.21462 0.214881 0.214881 0.215187 0.215214 0.215584 0.215607 0.216226 0.215784 
0.214327 0.214327 0.214617 0.214614 0.214836 0.21484 0.215115 0.215136 0.215458 
0.2155 0.215873 0.215968 0.215885 0.214542 0.214542 0.214595 0.214776 0.214768 
0.215012 0.215017 0.215302 0.215318 0.215644 0.215655 0.216124 0.215766 0.214591 
0.214591 0.214725 0.214732 0.214922 0.214929 0.215174 0.215186 0.215466 0.215482 
0.215785 0.215839 0.215841 0.214843 0.214843 0.214825 0.21499 0.214976 0.215195 
0.215184 0.215433 0.215427 0.215688 0.21569 0.216005 0.215803 0.215096 0.215096 
0.215167 0.215176 0.215344 0.215335 0.215553 0.21554 0.215772 0.215766 0.215996 
0.216024 0.216069 0.215684 0.215684 0.2156 0.215745 0.215728 0.21592 0.215893 
0.216106 0.216069 0.216279 0.216262 0.216489 0.216412 0.216141 0.216141 0.216129 
0.216141 0.216268 0.216279 0.21644 0.216416 0.216595 0.216551 0.21677 0.21681 
0.216938 0.217017 0.217017 0.216896 0.216974 0.216979 0.217116 0.217137 0.2173 
0.217296 0.217453 0.217459 0.217637 0.217706 0.217068 0.217068 0.21695 0.216936 
0.216977 0.217 0.217101 0.217139 0.217319 0.217425 0.217637 0.217826 0.217918 
0.136324 0.136324 0.135623 0.136048 0.135748 0.135864 0.135165 0.134657 0.133074 
0.131479 0.129146 0.127278 0.125962 0.136882 0.136882 0.136559 0.136844 0.136937 
0.137449 0.137928 0.138622 0.139524 0.140584 0.141329 0.141252 0.139122 0.145142 
0.145142 0.144814 0.14504 0.144925 0.145161 0.145247 0.145655 0.146102 0.146978 
0.147782 0.148433 0.148533 0.152282 0.152282 0.151997 0.151978 0.152023 0.152033 
0.152225 0.152323 0.152677 0.152919 0.153579 0.154239 0.155965 0.158984 0.158984 
0.15851 0.15863 0.158371 0.158573 0.158515 0.158829 0.158958 0.159432 0.159826 
0.160734 0.163005 0.16457 0.16457 0.164269 0.163974 0.164093 0.163892 0.16419 
0.164253 0.164821 0.165182 0.166169 0.16711 0.169828 0.169815 0.169815 0.169235 
0.169221 0.168782 0.168986 0.168795 0.169236 0.169481 0.170297 0.171063 0.17245 
0.175204 0.173603 0.173603 0.173373 0.172941 0.17295 0.172593 0.172811 0.172735 
0.17329 0.173685 0.174771 0.175867 0.178755 0.176878 0.176878 0.176678 0.176576 
0.176204 0.176174 0.175885 0.176072 0.176089 0.176629 0.177164 0.178246 0.181342 
0.179306 0.179306 0.179261 0.179196 0.17909 0.178847 0.178742 0.178592 0.1787 
0.178839 0.179364 0.179926 0.182638 0.180974 0.180974 0.181295 0.18121 0.181264 
0.181121 0.181038 0.180892 0.180817 0.180848 0.180864 0.180914 0.182759 0.182433 
0.182433 0.182565 0.182796 0.182651 0.182775 0.18257 0.182511 0.182253 0.181975 
0.181821 0.18126 0.182141 0.183242 0.183242 0.183624 0.183631 0.183826 0.183688 
0.183833 0.183587 0.183488 0.183142 0.182702 0.181852 0.182366 0.184635 0.184635 
0.18497 0.185135 0.185089 0.185293 0.185162 0.185371 0.185109 0.185091 0.184642 
0.184008 0.183822 0.185834 0.185834 0.186278 0.18637 0.186486 0.186448 0.186635 
0.18647 0.186605 0.186213 0.185933 0.184935 0.1846 0.187133 0.187133 0.1876 
0.187782 0.187751 0.187892 0.187801 0.187954 0.187716 0.187718 0.187132 0.18704 
0.185648 0.188633 0.188633 0.189195 0.189332 0.18945 0.189403 0.189549 0.189391 
0.189548 0.189186 0.189161 0.188478 0.188034 0.190263 0.190263 0.190821 0.191078 
0.191008 0.191217 0.191077 0.191266 0.191 0.191119 0.190574 0.191016 0.189352 
0.192001 0.192001 0.192679 0.192845 0.192966 0.192873 0.193099 0.192904 0.193076 
0.192786 0.192773 0.192741 0.19184 0.193846 0.193846 0.194528 0.194797 0.194697 
0.194925 0.194757 0.195007 0.194736 0.194926 0.194484 0.195544 0.19362 0.195704 
0.195704 0.196542 0.196699 0.196804 0.196682 0.196924 0.19672 0.196953 0.196696 
0.196818 0.197289 0.196139 0.197721 0.197721 0.198501 0.198753 0.198635 0.198843 
0.198664 0.198905 0.198648 0.198878 0.198519 0.200119 0.197893 0.199604 0.199604 
0.200515 0.200632 0.200758 0.200613 0.200845 0.200643 0.200862 0.200628 0.200823 
0.201572 0.200226 0.201684 0.201684 0.20242 0.202664 0.202527 0.20275 0.20256 
0.202788 0.202543 0.202756 0.20243 0.204236 0.201952 0.203505 0.203505 0.204343 
0.20442 0.204574 0.204421 0.204672 0.204479 0.204701 0.204495 0.204736 0.205554 
0.204344 0.205503 0.205503 0.206179 0.206384 0.206251 0.206486 0.206313 0.206566 
0.20636 0.206602 0.206347 0.207982 0.206204 0.207226 0.207226 0.207989 0.208035 
0.208192 0.208057 0.208318 0.208164 0.208416 0.208265 0.208588 0.209212 0.20838 
0.209058 0.209058 0.209643 0.209813 0.209706 0.209929 0.209803 0.210067 0.209932 
0.210215 0.210061 0.211255 0.210142 0.210482 0.210482 0.211082 0.211112 0.211283 
0.211191 0.211446 0.211351 0.211617 0.211534 0.211927 0.2122 0.211718 0.21179 
0.21179 0.212196 0.212364 0.212296 0.212533 0.212457 0.21273 0.21266 0.212969 
0.212891 0.213695 0.212992 0.212539 0.212539 0.213022 0.213042 0.213256 0.213204 
0.213482 0.213434 0.213729 0.213703 0.214123 0.214192 0.213925 0.213194 0.213194 
0.213514 0.213704 0.213666 0.213934 0.213893 0.214199 0.214164 0.214505 0.214459 
0.215053 0.214556 0.213423 0.213423 0.213871 0.213892 0.214126 0.214106 0.214401 
0.214381 0.2147 0.214689 0.215078 0.215095 0.214915 0.213741 0.213741 0.214017 
0.214202 0.214191 0.214458 0.214443 0.214749 0.214728 0.215061 0.215015 0.215482 
0.215052 0.213802 0.213802 0.214185 0.214197 0.214423 0.214423 0.214702 0.214696 
0.215 0.214983 0.215299 0.215308 0.215205 0.214107 0.214107 0.214251 0.214437 
0.214426 0.214682 0.214669 0.214953 0.214929 0.215213 0.21517 0.215506 0.215186 
0.214342 0.214342 0.214535 0.21453 0.214751 0.214735 0.215005 0.214979 0.215254 
0.215214 0.21546 0.215452 0.215409 0.214818 0.214818 0.214774 0.214975 0.214938 
0.215202 0.215154 0.21543 0.215373 0.215609 0.215549 0.215756 0.215577 0.215305 
0.215305 0.215371 0.21537 0.215582 0.215542 0.215804 0.215739 0.215992 0.215901 
0.216104 0.216048 0.216056 0.215925 0.215925 0.215804 0.215971 0.215943 0.216168 
0.216113 0.216347 0.216238 0.216455 0.216355 0.216518 0.21645 0.216659 0.216659 
0.216591 0.216606 0.216738 0.21675 0.216935 0.216924 0.217107 0.217054 0.217183 
0.217157 0.217197 0.216454 0.216454 0.216329 0.216364 0.216359 0.216478 0.216475 
0.216662 0.216677 0.216934 0.216993 0.217239 0.2172 0.137952 0.137952 0.137666 
0.13779 0.138027 0.137827 0.137986 0.137206 0.136601 0.134887 0.133225 0.131114 
0.130022 0.136456 0.136456 0.136204 0.136547 0.136689 0.137186 0.137778 0.138553 
0.13953 0.140684 0.141818 0.141978 0.140359 0.144523 0.144523 0.14429 0.144354 