# vtk DataFile Version 5.1
vtk output
ASCII
DATASET POLYDATA
POINTS 811 float
0.92342 0.32658 1.1 0.925057 0.324943 1.1 0.928256 0.329593 1.09215 
0.927125 0.326225 1.09665 0.926304 0.323696 1.1 0.926898 0.323102 1.1 
0.928969 0.321031 1.1 0.931298 0.318702 1.1 0.933918 0.316082 1.1 
0.936864 0.313136 1.1 0.940175 0.309825 1.1 0.952758 0.344857 1.05238 
0.977333 0.360167 1.0125 0.951534 0.341349 1.05712 0.950225 0.337465 1.06231 
0.948827 0.333169 1.068 0.947335 0.328421 1.07424 0.945745 0.32318 1.08108 
0.944054 0.317403 1.08854 0.942257 0.311044 1.0967 0.94155 0.30845 1.1 
0.943898 0.306102 1.1 0.94808 0.30192 1.1 0.952776 0.297224 1.1 
0.977751 0.360427 1.01182 0.977571 0.359929 1.0125 0.976436 0.356777 1.01679 
0.979083 0.358417 1.0125 0.975029 0.352735 1.02224 0.981056 0.356444 1.0125 
0.973525 0.348262 1.02821 0.983279 0.354221 1.0125 0.971919 0.343317 1.03476 
0.985785 0.351715 1.0125 0.970207 0.337855 1.04194 0.988611 0.348889 1.0125 
0.968385 0.331832 1.04978 0.991794 0.345706 1.0125 0.966447 0.325201 1.05835 
0.964391 0.317913 1.0677 0.962212 0.309922 1.07787 0.959908 0.301181 1.08891 
0.957656 0.292344 1.1 0.958045 0.291955 1.1 0.963955 0.286045 1.1 
0.970575 0.279425 1.1 1.00319 0.376276 0.970534 1.02268 0.38842 0.938899 
1.00179 0.372483 0.975727 1.02453 0.386569 0.938899 1.00029 0.368282 0.981428 
0.99868 0.36363 0.98769 0.996964 0.358485 0.994551 0.995133 0.3528 1.00207 
0.993183 0.346529 1.01029 0.992672 0.344828 1.0125 0.991108 0.339622 1.01927 
0.995381 0.342119 1.0125 0.988904 0.332029 1.02907 0.999421 0.338079 1.0125 
0.986568 0.3237 1.03973 1.00397 0.333532 1.0125 0.984096 0.314586 1.05132 
0.981485 0.304643 1.06387 0.978735 0.293831 1.07743 0.975845 0.282116 1.09204 
0.974307 0.275693 1.1 0.977986 0.272014 1.1 0.98627 0.26373 1.1 
1.02903 0.392375 0.928595 1.02755 0.388439 0.934011 1.02624 0.384863 0.938899 
1.02595 0.384076 0.939974 1.02662 0.384485 0.938899 1.02425 0.379244 0.946506 
1.02897 0.382128 0.938899 1.02243 0.373898 0.953672 1.03163 0.379467 0.938899 
1.02048 0.367989 0.961531 1.03464 0.376464 0.938899 1.01841 0.361468 0.970122 
1.03803 0.373074 0.938899 1.0162 0.354283 0.979517 1.01385 0.346381 0.989769 
1.01136 0.33771 1.00093 1.00885 0.328651 1.0125 1.00873 0.32822 1.01305 
1.00908 0.328416 1.0125 1.00594 0.317862 1.0262 1.01484 0.322663 1.0125 
1.00301 0.306596 1.04039 1.0213 0.316198 1.0125 0.999918 0.294386 1.0557 
0.99668 0.281206 1.07211 0.993294 0.267043 1.08966 0.991341 0.258659 1.1 
0.99552 0.25448 1.1 1.00583 0.244166 1.1 1.05523 0.408692 0.886078 
1.06083 0.412179 0.876993 1.05366 0.404612 0.891728 1.06276 0.410247 0.876993 
1.05198 0.400088 0.897932 1.06495 0.408061 0.876993 1.05018 0.395076 0.904744 
1.06741 0.405592 0.876993 1.04826 0.389527 0.912213 1.07021 0.402797 0.876993 
1.04621 0.383393 0.920397 1.04402 0.37662 0.92936 1.04174 0.369358 0.938899 
1.04168 0.369155 0.939165 1.04185 0.369253 0.938899 1.0392 0.360942 0.949858 
1.04616 0.364938 0.938899 1.03656 0.351927 0.961513 1.05103 0.360075 0.938899 
1.03377 0.342057 0.974173 1.0565 0.354598 0.938899 1.03081 0.331281 0.987909 
1.0277 0.319556 1.00274 1.0257 0.311801 1.0125 1.02442 0.306845 1.01873 
1.02856 0.308943 1.0125 1.02097 0.293121 1.03591 1.03669 0.300809 1.0125 
1.01737 0.278371 1.05426 1.01362 0.262596 1.07378 1.00972 0.245815 1.09447 
1.00869 0.241306 1.1 1.01732 0.232682 1.1 1.08172 0.425196 0.843084 
1.09291 0.43217 0.824918 1.08008 0.420972 0.848948 1.09492 0.430161 0.824918 
1.07832 0.416286 0.855394 1.09719 0.427887 0.824918 1.07643 0.411093 0.862477 
1.09976 0.425319 0.824918 1.07442 0.405342 0.870238 1.07271 0.400299 0.876993 
1.07226 0.398981 0.878759 1.07337 0.399642 0.876993 1.06996 0.391955 0.888085 
1.07693 0.396073 0.876993 1.06751 0.384209 0.898281 1.08097 0.392042 0.876993 
1.06489 0.375684 0.909426 1.08551 0.387495 0.876993 1.06212 0.366323 0.921557 
1.05917 0.35607 0.93476 1.05827 0.352831 0.938899 1.05606 0.344873 0.949067 
1.06268 0.348426 0.938899 1.05277 0.332687 0.964543 1.06961 0.341486 0.938899 
1.04931 0.319471 0.981219 1.04567 0.305199 0.999131 1.04301 0.294489 1.0125 
1.04186 0.289855 1.01829 1.0458 0.291697 1.0125 1.03789 0.273441 1.03867 
1.056 0.281502 1.0125 1.03376 0.255977 1.06026 1.02948 0.237505 1.08302 
1.02634 0.223664 1.1 1.03008 0.219923 1.1 1.04423 0.205772 1.1 
1.10845 0.441852 0.799698 1.1199 0.448986 0.781109 1.10675 0.437484 0.805766 
1.12198 0.446912 0.781109 1.10492 0.432636 0.812444 1.12433 0.444565 0.781109 
1.10295 0.427262 0.819788 1.12698 0.44191 0.781109 1.10161 0.42347 0.824918 
1.10085 0.421308 0.827842 1.10267 0.422409 0.824918 1.0986 0.414721 0.836679 
1.10596 0.419118 0.824918 1.09619 0.407443 0.846367 1.10968 0.415398 0.824918 
1.09363 0.399414 0.856956 1.11389 0.411192 0.824918 1.09089 0.390576 0.868534 
1.08894 0.384062 0.876993 1.08799 0.380867 0.881143 1.09065 0.382359 0.876993 
1.0849 0.370231 0.894869 1.09644 0.376566 0.876993 1.08164 0.358612 0.909748 
1.10297 0.370039 0.876993 1.07818 0.345961 0.925859 1.07545 0.335649 0.938899 
1.07455 0.332238 0.943212 1.07742 0.333684 0.938899 1.07072 0.317414 0.961866 
1.08618 0.324922 0.938899 1.06672 0.301472 0.981808 1.06254 0.284415 1.00304 
1.06071 0.276788 1.0125 1.05819 0.266262 1.02555 1.06739 0.270115 1.0125 
1.05368 0.247058 1.04926 1.04903 0.226868 1.0741 1.04426 0.205783 1.09996 
1.04425 0.205748 1.1 1.05989 0.190106 1.1 1.16173 0.47504 0.713228 
1.13538 0.458624 0.755996 1.14262 0.463133 0.744248 1.13361 0.454112 0.762278 
1.14475 0.461004 0.744248 1.13171 0.449104 0.769186 1.14716 0.458594 0.744248 
1.12967 0.443549 0.776781 1.14989 0.455862 0.744248 1.12854 0.440353 0.781109 
1.15298 0.452768 0.744248 1.12749 0.437393 0.785117 1.12999 0.438901 0.781109 
1.12516 0.430579 0.794261 1.1334 0.435493 0.781109 1.12266 0.423048 0.804292 
1.13725 0.431639 0.781109 1.11999 0.414739 0.815271 1.14161 0.427282 0.781109 
1.11771 0.407377 0.824918 1.11715 0.405587 0.827263 1.11864 0.406439 0.824918 
1.11412 0.395531 0.840349 1.12401 0.401069 0.824918 1.11091 0.38451 0.85458 
1.13007 0.395007 0.824918 1.1075 0.372467 0.870033 1.106 0.367006 0.876993 
1.1039 0.359351 0.886749 1.11032 0.362684 0.876993 1.1001 0.34512 0.90478 
1.1186 0.35441 0.876993 1.0961 0.329741 0.924159 1.09313 0.317974 0.938899 
1.09192 0.313199 0.944881 1.09601 0.315093 0.938899 1.08754 0.295494 0.966966 
1.10702 0.304084 0.938899 1.08298 0.276649 0.990371 1.07874 0.258755 1.0125 
1.07826 0.256708 1.01503 1.08008 0.257419 1.0125 1.07339 0.235739 1.04087 
1.09422 0.24328 1.0125 1.06838 0.213838 1.06778 1.06326 0.191122 1.09562 
1.06246 0.187538 1.1 1.07719 0.172815 1.1 1.16243 0.475475 0.712095 
1.17782 0.485065 0.687115 1.16211 0.474661 0.713228 1.18004 0.482845 0.687115 
1.16061 0.470821 0.718569 1.16391 0.472863 0.713228 1.18256 0.480329 0.687115 
1.15865 0.465653 0.725697 1.16638 0.470396 0.713228 1.15655 0.459918 0.733532 
1.16917 0.4676 0.713228 1.1543 0.453561 0.742139 1.17234 0.464432 0.713228 
1.15376 0.45199 0.744248 1.17593 0.46084 0.713228 1.15189 0.446522 0.751588 
1.15649 0.449262 0.744248 1.14931 0.438739 0.761951 1.16046 0.445294 0.744248 
1.14655 0.430149 0.773301 1.16495 0.440803 0.744248 1.1447 0.424192 0.781109 
1.17003 0.435725 0.744248 1.14361 0.420684 0.785706 1.14654 0.422352 0.781109 
1.14047 0.410282 0.799248 1.15211 0.41678 0.781109 1.13714 0.398877 0.813983 
1.15841 0.410486 0.781109 1.13473 0.390355 0.824918 1.13361 0.386411 0.829979 
1.13691 0.388169 0.824918 1.12987 0.372829 0.847301 1.14462 0.380458 0.824918 
1.12592 0.358088 0.865992 1.12365 0.34936 0.876993 1.12177 0.342154 0.886076 
1.1279 0.345106 0.876993 1.11741 0.32501 0.90758 1.13835 0.334662 0.876993 
1.11285 0.306657 0.930493 1.11121 0.299892 0.938899 1.10811 0.287117 0.954773 
1.11933 0.291767 0.938899 1.10318 0.266435 0.980385 1.0981 0.244684 1.00722 
1.09711 0.240389 1.0125 1.09287 0.22196 1.03517 1.10993 0.227572 1.0125 
1.08753 0.198389 1.06408 1.08209 0.174117 1.09379 1.08096 0.169038 1.1 
1.09622 0.153784 1.1 1.21242 0.506616 0.630969 1.20279 0.500619 0.646595 
1.18954 0.492369 0.668091 1.19137 0.493508 0.665124 1.21473 0.504304 0.630969 
1.20507 0.498332 0.646595 1.18768 0.487573 0.674747 1.19363 0.491251 0.665124 
1.20767 0.495739 0.646595 1.18568 0.482246 0.682074 1.19618 0.488692 0.665124 
1.18433 0.478554 0.687115 1.19908 0.485795 0.665124 1.18352 0.476333 0.690147 
1.18541 0.47748 0.687115 1.20237 0.482509 0.665124 1.18121 0.469776 0.699014 
1.18864 0.474247 0.687115 1.17874 0.462513 0.708747 1.1923 0.470582 0.687115 
1.17763 0.459147 0.713228 1.19645 0.466434 0.687115 1.17608 0.45448 0.71944 
1.17999 0.456777 0.713228 1.17325 0.44561 0.73114 1.1846 0.452171 0.713228 
1.17022 0.435835 0.743945 1.18981 0.446962 0.713228 1.17015 0.435602 0.744248 
1.16699 0.425087 0.757923 1.17577 0.429978 0.744248 1.16356 0.4133 0.77314 
1.18227 0.423484 0.744248 1.1618 0.40709 0.781109 1.15991 0.400411 0.789679 
1.16551 0.403381 0.781109 1.15605 0.386366 0.807584 1.17353 0.395365 0.781109 
1.15239 0.372691 0.824918 1.15197 0.371115 0.826915 1.1533 0.371779 0.824918 
1.14767 0.354627 0.847703 1.16308 0.362006 0.824918 1.14316 0.336881 0.869959 
1.14176 0.331247 0.876993 1.13844 0.317879 0.893681 1.15006 0.322944 0.876993 
1.13352 0.297643 0.918837 1.12966 0.281439 0.938899 1.12842 0.276219 0.945361 
1.13309 0.278015 0.938899 1.12314 0.253683 0.973177 1.14841 0.262689 0.938899 
1.11772 0.230135 1.00215 1.1158 0.221697 1.0125 1.11217 0.205704 1.03213 
1.12734 0.210165 1.0125 1.10652 0.180543 1.06294 1.1008 0.154828 1.09437 
1.09978 0.150218 1.1 1.11708 0.132917 1.1 1.24241 0.525303 0.582287 
1.23819 0.522671 0.589143 1.23324 0.519588 0.597175 1.22741 0.51596 0.606626 
1.21667 0.509266 0.624064 1.22054 0.511679 0.617779 1.24057 0.520285 0.589143 
1.23561 0.517216 0.597175 1.22977 0.513605 0.606626 1.21477 0.504331 0.630899 
1.22288 0.509344 0.617779 1.21475 0.50428 0.630969 1.2383 0.514527 0.597175 
1.23244 0.510935 0.606626 1.22553 0.506695 0.617779 1.21273 0.498847 0.638423 
[...]
POINT_DATA 811
FIELD FieldData 5
pressure 1 811 float
0.179101 0.179173 0.180001 0.179561 0.17922 0.179244 0.179331 0.179429 0.17954 
0.179665 0.179807 0.185367 0.192111 0.184881 0.184293 0.18364 0.182917 0.182119 
0.181236 0.180262 0.179865 0.179974 0.180165 0.180373 0.192255 0.192165 0.191703 
0.192514 0.191015 0.192863 0.190246 0.193239 0.189396 0.19365 0.188456 0.194095 
0.187417 0.194575 0.18627 0.185004 0.183616 0.182101 0.180583 0.180601 0.180852 
0.181107 0.200832 0.206903 0.200071 0.207021 0.199165 0.198197 0.197177 0.196106 
0.194992 0.194701 0.193676 0.195083 0.192178 0.195613 0.190529 0.196155 0.188724 
0.186764 0.184661 0.182432 0.181237 0.181367 0.181623 0.207975 0.207515 0.207053 
0.20687 0.207056 0.205782 0.207066 0.204628 0.207068 0.203412 0.207061 0.20214 
0.207041 0.200817 0.199449 0.198044 0.196667 0.19657 0.19669 0.194234 0.197175 
0.191726 0.197631 0.189068 0.186285 0.183404 0.181758 0.181866 0.1821 0.211875 
0.212614 0.211343 0.212525 0.210747 0.212409 0.210095 0.21227 0.209392 0.212112 
0.208641 0.207838 0.207007 0.206969 0.207006 0.205453 0.206921 0.203889 0.206818 
0.202286 0.206709 0.200642 0.19896 0.197899 0.196693 0.198045 0.193415 0.198386 
0.190017 0.186542 0.183054 0.182157 0.182327 0.215177 0.216544 0.214632 0.216404 
0.214009 0.2162 0.213323 0.215938 0.212589 0.211968 0.211806 0.211929 0.210952 
0.211703 0.210034 0.21143 0.209057 0.211104 0.208035 0.20699 0.206678 0.205457 
0.206579 0.203671 0.206411 0.201827 0.199935 0.198586 0.197414 0.198641 0.193368 
0.198735 0.189289 0.185267 0.182482 0.182553 0.182803 0.217739 0.218382 0.217145 
0.217758 0.216598 0.217125 0.216057 0.216317 0.215725 0.215415 0.215586 0.214472 
0.215097 0.213478 0.214457 0.212454 0.213595 0.211455 0.21085 0.210495 0.210711 
0.209361 0.210201 0.208194 0.209444 0.207024 0.206228 0.205754 0.206142 0.203705 
0.205594 0.201614 0.199571 0.19872 0.19603 0.198571 0.19137 0.186909 0.18281 
0.182804 0.183064 0.215154 0.217735 0.217312 0.217051 0.216202 0.216547 0.215108 
0.216051 0.213768 0.215801 0.212184 0.215385 0.215298 0.214499 0.214015 0.213703 
0.212451 0.213053 0.210536 0.21265 0.212391 0.212393 0.211012 0.210694 0.209859 
0.208459 0.209136 0.208947 0.208078 0.208112 0.206592 0.206035 0.205467 0.204995 
0.204351 0.204677 0.20205 0.20318 0.199874 0.198106 0.197581 0.198016 0.192458 
0.196801 0.187775 0.18367 0.183094 0.183151 0.215058 0.213041 0.214912 0.211389 
0.214184 0.213761 0.209674 0.213461 0.21235 0.212684 0.210636 0.211941 0.208633 
0.211767 0.206269 0.211062 0.210293 0.210202 0.208055 0.209469 0.205419 0.209057 
0.202311 0.208652 0.208158 0.207612 0.205252 0.20687 0.201817 0.206561 0.206148 
0.20564 0.20511 0.202272 0.204613 0.204572 0.203885 0.203239 0.202775 0.199737 
0.202432 0.202504 0.200931 0.200946 0.198678 0.196813 0.19651 0.192284 0.19486 
0.187653 0.183822 0.183127 0.182818 0.207144 0.209125 0.211382 0.211121 0.204311 
0.206753 0.21012 0.209126 0.204199 0.209068 0.207019 0.208373 0.204451 0.207932 
0.207582 0.201382 0.206705 0.205106 0.205562 0.202154 0.205103 0.198633 0.204381 
0.203467 0.203188 0.200148 0.202251 0.196216 0.202232 0.201094 0.198641 0.200206 
0.194356 0.199908 0.199379 0.197822 0.198743 0.193242 0.198801 0.198719 0.19839 
0.198136 0.193807 0.198298 0.198527 0.197983 0.195465 0.197972 0.19868 0.198104 
0.19783 0.195905 0.193625 0.194376 0.194044 0.190819 0.192222 0.186585 0.183236 
0.182731 0.182156 0.198246 0.199959 0.201666 0.203412 0.206133 0.205224 0.194296 
0.196919 0.199412 0.204298 0.201855 0.204283 0.191257 0.194795 0.198077 0.202639 
0.201207 0.201107 0.188963 0.193339 0.197353 0.201084 0.201062 0.187485 0.192612 
0.19932 0.197235 0.197957 0.186866 0.192598 0.197837 0.197688 0.18705 0.196132 
0.193234 0.195058 0.187934 0.194824 0.194433 0.18175 0.19334 0.189439 0.192651 
0.183647 0.192339 0.191601 0.191203 0.18623 0.190871 0.180047 0.190553 0.18942 
0.189803 0.183749 0.189773 0.189612 0.18806 0.189604 0.182112 0.190135 0.190057 
0.188426 0.190394 0.18222 0.19147 0.191432 0.190313 0.191903 0.184236 0.1936 
0.193608 0.191762 0.188244 0.191039 0.191076 0.188494 0.18925 0.184982 0.182287 
0.182093 0.186058 0.186057 0.186316 0.187895 0.190256 0.192531 0.194614 0.197598 
0.196483 0.196148 0.120574 0.12069 0.14148 0.159107 0.171306 0.178948 0.184151 
0.188137 0.193453 0.191433 0.19247 0.100785 0.113486 0.128531 0.144798 0.159049 
0.1695 0.176972 0.182669 0.190105 0.187302 0.189277 0.122236 0.135903 0.149847 
0.161912 0.17112 0.178244 0.187249 0.184042 0.186433 0.131055 0.144054 0.156571 
0.166904 0.175071 0.18487 0.181762 0.183995 0.140204 0.152951 0.164074 0.173044 
0.182957 0.180432 0.18203 0.150998 0.162569 0.172075 0.181514 0.180044 0.180513 
0.150335 0.162154 0.172064 0.180511 0.180506 0.162764 0.179417 0.17297 0.179392 
0.164183 0.178705 0.174646 0.178648 0.166365 0.178411 0.176984 0.178175 0.169256 
0.178342 0.177973 0.17286 0.178491 0.164552 0.178391 0.177207 0.17852 0.16964 
0.179088 0.179247 0.175387 0.180373 0.180776 0.181412 0.17521 0.18342 0.183664 
0.184741 0.177418 0.187217 0.187582 0.186975 0.182356 0.187679 0.188142 0.185912 
0.185859 0.183174 0.181348 0.181297 0.10437 0.100901 0.101074 0.101936 0.110641 
0.112468 0.106152 0.10627 0.107913 0.113308 0.111002 0.120064 0.124722 0.109279 
0.109263 0.109203 0.110638 0.114772 0.126989 0.120127 0.129134 0.133729 0.111791 
0.111747 0.110908 0.110372 0.109936 0.111841 0.118796 0.135797 0.128034 0.137755 
0.141584 0.112149 0.11216 0.111858 0.111621 0.11196 0.113041 0.114337 0.118056 
0.126936 0.142388 0.138332 0.145267 0.113422 0.112868 0.112464 0.113959 0.118499 
0.12637 0.14736 0.13771 0.148373 0.151224 0.115818 0.118815 0.126909 0.138084 
0.15127 0.150793 0.153859 0.120111 0.127832 0.139272 0.154035 0.15207 0.156237 
0.129255 0.141078 0.156418 0.15412 0.158449 0.13106 0.143573 0.158554 0.156884 
0.160566 0.146797 0.160577 0.160339 0.162191 0.150794 0.162796 0.163865 0.155575 
0.165319 0.165807 0.161321 0.167898 0.167922 0.167669 0.169678 0.159419 0.171147 
0.171883 0.167431 0.174869 0.175932 0.17783 0.17164 0.181186 0.181672 0.182775 
0.177848 0.184448 0.184905 0.183139 0.182255 0.181514 0.180704 0.180515 0.112217 
0.112576 0.112703 0.113069 0.11376 0.113745 0.113537 0.113431 0.113496 0.113473 
0.113421 0.114011 0.115567 0.115332 0.115334 0.115091 0.114903 0.114827 0.114749 
0.114996 0.115595 0.115589 0.115651 0.117147 0.117022 0.116814 0.116729 0.116791 
0.11678 0.116628 0.11602 0.115564 0.118004 0.116852 0.119452 0.121765 0.117817 
0.117797 0.117935 0.117949 0.118131 0.122615 0.120787 0.126047 0.119011 0.118612 
0.119753 0.128818 0.122579 0.129895 0.134289 0.120791 0.124535 0.134504 0.133801 
0.139029 0.122839 0.126671 0.139749 0.1372 0.143546 0.129596 0.144301 0.141315 
0.147864 0.133198 0.148346 0.146215 0.152357 0.138089 0.152366 0.152323 0.155852 
0.143738 0.156946 0.158832 0.150371 0.162823 0.163805 0.161046 0.169537 0.170765 
0.173723 0.169413 0.177326 0.177577 0.179708 0.181631 0.181845 0.180891 0.180355 
0.180118 0.179806 0.116925 0.117032 0.117218 0.117298 0.117495 0.117751 0.117853 
0.117913 0.118126 0.118677 0.119215 0.119186 0.119181 0.119654 0.120485 0.120548 
0.121128 0.122737 0.122881 0.124689 0.126047 0.128259 0.130847 0.131858 0.135681 
0.136656 0.140392 0.142324 0.145642 0.150968 0.155722 0.16223 0.163933 0.168871 
0.16944 0.172549 0.175101 0.175189 0.177752 0.17931 0.179296 0.179476 0.179629 
0.179632 
velocity_u 1 811 float
0.999446 0.999373 0.998541 0.998983 0.999327 0.999302 0.999215 0.999117 0.999006 
0.99888 0.998737 0.993158 0.986421 0.993642 0.99423 0.994884 0.995609 0.996411 
0.997299 0.998279 0.998679 0.998569 0.998374 0.998161 0.986273 0.986367 0.986824 
0.986016 0.987505 0.985661 0.988268 0.98528 0.989112 0.984863 0.99005 0.984411 
0.991088 0.983924 0.992237 0.993505 0.994899 0.996421 0.997947 0.997929 0.997669 
0.997403 0.977414 0.971108 0.978212 0.970993 0.979155 0.98016 0.98122 0.982333 
0.983493 0.983796 0.984814 0.983409 0.986308 0.982872 0.987955 0.982322 0.989761 
0.991725 0.993834 0.996069 0.997266 0.997128 0.996855 0.970044 0.970502 0.97096 
0.97115 0.970957 0.972285 0.970944 0.973487 0.970939 0.974755 0.970942 0.976081 
0.970957 0.977462 0.97889 0.980358 0.981802 0.981898 0.981779 0.984229 0.981286 
0.986735 0.980823 0.989394 0.992179 0.995062 0.996709 0.996589 0.99633 0.966164 
0.965421 0.966685 0.965496 0.967273 0.9656 0.967915 0.965725 0.968609 0.965869 
0.969354 0.970153 0.970987 0.971027 0.970988 0.972616 0.971067 0.974253 0.971162 
0.975933 0.971262 0.977656 0.979427 0.980551 0.981753 0.980402 0.985024 0.980051 
0.988416 0.991885 0.99537 0.996266 0.996068 0.962625 0.961138 0.963198 0.961265 
0.963854 0.961454 0.964574 0.961701 0.965347 0.965999 0.96616 0.966035 0.967006 
0.966241 0.967917 0.966491 0.96889 0.966793 0.969916 0.970973 0.971289 0.972576 
0.971379 0.974457 0.97153 0.9764 0.978403 0.979841 0.981007 0.97978 0.985035 
0.979662 0.989098 0.993108 0.99589 0.995807 0.995516 0.959753 0.958973 0.960371 
0.959573 0.960953 0.960188 0.961537 0.960974 0.961901 0.962226 0.962033 0.96321 
0.962501 0.964251 0.963116 0.965329 0.963951 0.966385 0.967033 0.967388 0.967164 
0.968525 0.96765 0.969703 0.968386 0.970888 0.971701 0.972202 0.971782 0.974363 
0.972306 0.976573 0.978751 0.979665 0.982335 0.979788 0.98697 0.991415 0.995509 
0.995515 0.995202 0.961533 0.959467 0.959841 0.960155 0.960915 0.960683 0.96198 
0.961208 0.963285 0.961477 0.964833 0.96191 0.961967 0.962836 0.963218 0.963683 
0.964749 0.9644 0.966629 0.964868 0.96514 0.965118 0.966588 0.966777 0.967822 
0.968971 0.968639 0.968872 0.969745 0.96969 0.971244 0.971726 0.972396 0.972888 
0.973566 0.973198 0.975992 0.974664 0.978304 0.980212 0.980732 0.980296 0.985821 
0.981449 0.990486 0.994588 0.995167 0.995078 0.961602 0.963042 0.961776 0.964697 
0.962602 0.962932 0.966409 0.963427 0.964344 0.964274 0.966047 0.96506 0.968042 
0.965241 0.970403 0.965961 0.966685 0.966856 0.968886 0.967636 0.971485 0.968084 
0.974561 0.96851 0.968969 0.969618 0.971832 0.970454 0.975228 0.970838 0.971283 
0.971745 0.972439 0.975078 0.973055 0.973165 0.973859 0.974476 0.975009 0.97794 
0.975392 0.975329 0.976983 0.976862 0.979373 0.981394 0.981729 0.985928 0.983326 
0.990546 0.994395 0.995098 0.995399 0.967528 0.96636 0.964435 0.964669 0.970337 
0.968735 0.965748 0.966623 0.971298 0.96691 0.968693 0.967702 0.971224 0.968206 
0.968486 0.974261 0.96962 0.97094 0.970995 0.97387 0.97157 0.977376 0.972363 
0.973202 0.973637 0.976513 0.974619 0.980447 0.974639 0.97583 0.978199 0.976783 
0.98246 0.977118 0.977695 0.979186 0.978452 0.983741 0.978527 0.978624 0.978937 
0.979348 0.983508 0.979321 0.979144 0.979732 0.982194 0.979792 0.979095 0.979699 
0.979932 0.982039 0.984091 0.983729 0.984121 0.987331 0.985902 0.991575 0.99497 
0.995487 0.996083 0.975429 0.974 0.972576 0.970958 0.968325 0.969119 0.979727 
0.97734 0.97492 0.970347 0.972436 0.970366 0.98303 0.979517 0.976194 0.972438 
0.97347 0.974412 0.985361 0.980937 0.977362 0.974437 0.974457 0.986829 0.982161 
0.976295 0.978285 0.977657 0.988008 0.98295 0.977786 0.977924 0.988571 0.979666 
0.982371 0.980943 0.987693 0.981217 0.981566 0.993933 0.983033 0.986563 0.984022 
0.992388 0.98436 0.985074 0.985571 0.99046 0.985938 0.99668 0.986275 0.987386 
0.987104 0.993056 0.987205 0.987412 0.988917 0.987586 0.99487 0.987169 0.987291 
0.988874 0.987109 0.995074 0.986183 0.986235 0.987339 0.985807 0.993421 0.984116 
0.984108 0.986097 0.989422 0.986991 0.987029 0.989614 0.988837 0.993169 0.995946 
0.996147 0.621782 0.804428 0.911919 0.960674 0.9771 0.979837 0.978684 0.976006 
0.977001 0.977556 0.705908 0.893025 0.962486 0.989644 0.996058 0.993558 0.989368 
0.985503 0.980499 0.982343 0.981576 0.909412 0.992117 1.0203 1.023 1.01412 
1.00455 0.996981 0.991294 0.984137 0.986812 0.985034 1.04645 1.03853 1.02533 
1.01275 1.00322 0.996069 0.987095 0.990331 0.987921 1.04537 1.03173 1.01852 
1.00783 0.999513 0.989469 0.992657 0.990372 1.0359 1.02249 1.01092 1.00159 
0.99162 0.99401 0.992967 1.02464 1.01244 1.00262 0.993671 0.995008 0.995239 
1.0252 1.0129 1.00324 0.995241 0.995246 1.0129 0.996329 1.00293 0.996326 
1.01196 0.997183 1.00115 0.99744 1.00961 0.997782 0.999123 0.998469 1.00698 
0.9984 0.998824 1.00393 0.998334 1.01232 0.998452 0.999624 0.998415 1.00723 
0.997907 0.997846 1.00162 0.996886 0.996512 0.996002 1.00206 0.994217 0.993994 
0.992935 1.00025 0.990442 0.99008 0.990831 0.995282 0.990325 0.989939 0.992192 
0.992209 0.995002 0.996935 0.99699 0.717368 0.808636 0.719536 0.907759 0.994816 
1.03735 0.712298 0.90162 0.997317 1.04044 1.03887 1.04868 1.05032 0.704531 
0.89424 0.994236 1.03835 1.05418 1.04902 1.05517 1.0474 1.04275 0.697551 
0.887381 0.990355 1.03762 1.05922 1.06392 1.05833 1.04058 1.04883 1.0385 
1.03455 0.691789 0.881956 0.986886 1.03548 1.05643 1.06243 1.06321 1.0594 
1.04999 1.03372 1.038 1.03068 1.05445 1.06246 1.06515 1.06372 1.05905 
1.05065 1.02836 1.03865 1.02726 1.02431 1.06193 1.05855 1.05004 1.03812 
1.02429 1.02477 1.02221 1.05715 1.04875 1.03688 1.02213 1.02408 1.02015 
1.04743 1.03558 1.01994 1.02233 1.01772 1.04607 1.03319 1.01765 1.01933 
1.01584 1.02969 1.01584 1.01608 1.01464 1.02585 1.0141 1.01305 1.0214 
1.01157 1.01112 1.01559 1.00913 1.00911 1.00936 1.00751 1.01764 1.00614 
1.0055 1.00987 1.00274 1.00173 0.9998 1.00599 0.996451 0.995967 0.995033 
0.999834 0.993563 0.993159 0.994977 0.995809 0.996714 0.997631 0.997841 0.691478 
0.880102 0.984497 1.03308 0.684827 0.875192 0.982147 1.05114 1.03232 1.05438 
1.06182 1.06343 1.06203 0.677056 0.867606 0.977059 1.02914 1.05227 1.06028 
1.0623 1.062 1.062 1.06208 1.06035 0.859232 0.971326 1.02531 1.04939 
1.05796 1.06046 1.06138 1.0621 1.05943 1.06066 1.05785 1.05551 1.05904 
1.05939 1.05949 1.05936 1.05926 1.0546 1.05659 1.05079 1.05813 1.05855 
1.05705 1.04828 1.05445 1.04728 1.04273 1.05625 1.05283 1.0425 1.04323 
1.03766 1.05457 1.05043 1.03696 1.03954 1.03326 1.04731 1.03259 1.03555 
1.0292 1.04381 1.02871 1.03087 1.02465 1.03903 1.02464 1.02469 1.02117 
1.03326 1.0201 1.01833 1.02672 1.01443 1.0135 1.01618 1.00806 1.00689 
1.00395 1.0083 1.00036 1.00011 0.998153 0.996413 0.996221 0.997272 0.997955 
0.998276 0.998624 0.669048 0.73195 0.858208 0.969529 1.02342 1.04767 1.05643 
1.05719 1.05868 1.0584 1.05801 1.05796 1.05794 1.05739 1.0562 1.05615 
1.05595 1.05465 1.05452 1.05238 1.05094 1.04862 1.04608 1.04517 1.04144 
1.04044 1.03662 1.03456 1.03125 1.02602 1.02126 1.01517 1.01354 1.00884 
1.00829 1.00518 1.00266 1.00258 1.0002 0.998786 0.998808 0.998771 0.998773 
0.998814 
velocity_v 1 811 float
0.000447335 0.00049708 0.00104628 0.000752337 0.000526027 0.000542209 0.000597805 0.000658126 0.000723352 
0.00079384 0.000868751 0.00475347 0.00959697 0.00437156 0.00391525 0.00342358 0.0028977 0.00233902 
0.00175048 0.00113691 0.000897557 0.000954377 0.00104655 0.00113599 0.00969498 0.00962203 0.00920373 
0.00979062 0.00859307 0.00991003 0.00793118 0.0100264 0.00721884 0.0101372 0.0064564 0.0102365 
0.00564556 0.0103151 0.0047896 0.00389521 0.00297544 0.00204929 0.00121247 0.00121913 0.00129415 
0.00133977 0.0156882 0.0201165 0.0149513 0.0199051 0.0141137 0.0132473 0.0123575 0.0114556 
0.0105568 0.0103287 0.00946223 0.0103687 0.00824144 0.0103739 0.00696788 0.010306 0.00565739 
0.0043395 0.00306305 0.0018903 0.00134652 0.00135094 0.00131971 0.0208038 0.020222 0.0196716 
0.0194849 0.0196169 0.0183848 0.0192807 0.0172323 0.0188893 0.0160391 0.0184354 0.0148208 
0.0179064 0.0135955 0.0123855 0.0112133 0.0101405 0.0100631 0.0101313 0.00824565 0.00981503 
0.00644719 0.00934933 0.00473548 0.00317961 0.0018689 0.00127592 0.00123297 0.00108805 0.0235173 
0.0241233 0.0228419 0.0237972 0.0220616 0.0233566 0.0212201 0.0228342 0.0203246 0.0222358 
0.0193742 0.0183602 0.0173032 0.017263 0.0172858 0.015693 0.0165486 0.0141308 0.015705 
0.0126092 0.0147548 0.0111528 0.0097824 0.00898246 0.00811531 0.00872737 0.00593856 0.00792176 
0.00399218 0.00238584 0.00124398 0.00104089 0.000880914 0.0264073 0.027651 0.0256573 0.0272704 
0.0247482 0.0267199 0.0237279 0.0260202 0.0226256 0.0216915 0.0214565 0.0215503 0.0202472 
0.0207775 0.018983 0.0198793 0.0176668 0.0188341 0.0162933 0.0148776 0.0144488 0.0131665 
0.0136903 0.0113988 0.0124746 0.00973374 0.00820401 0.00722186 0.00647357 0.00689297 0.00415314 
0.00558364 0.00230714 0.00108558 0.000692239 0.000611367 0.0002748 0.0296997 0.0309368 0.0286122 
0.0299358 0.0274858 0.0288541 0.0262797 0.0274948 0.0254839 0.0250154 0.0251651 0.0235996 
0.0241126 0.0221042 0.0228256 0.0205492 0.0212055 0.0190046 0.0180326 0.0175133 0.0176308 
0.0158945 0.0162334 0.0142446 0.0144438 0.0125689 0.0113855 0.0108805 0.011004 0.00883741 
0.00912513 0.00700642 0.00548009 0.00491911 0.00347778 0.00389515 0.00148854 0.000359764 0.000273409 
0.000274201 -0.000154549 0.0283612 0.0304138 0.0300416 0.0292257 0.0283613 0.0282231 0.0266495 
0.0271869 0.0245454 0.0266452 0.0220641 0.0258486 0.0258313 0.024097 0.0237902 0.0223725 
0.0213272 0.0207486 0.0183453 0.0195405 0.0191463 0.019109 0.0170478 0.0163763 0.0151986 
0.0128913 0.0138675 0.0134406 0.0121858 0.0118843 0.0100441 0.008379 0.00829894 0.00745902 
0.00679736 0.00671307 0.00468798 0.00363839 0.00303812 0.0019731 0.00172619 0.00172299 -0.000219687 
-0.00111998 -0.000972846 -0.000440221 -0.000238622 -0.000838423 0.0282882 0.0267037 0.0279801 0.0240354 
0.026564 0.0261833 0.0212983 0.0250584 0.0239762 0.0234252 0.0212927 0.0217975 0.0181419 
0.0214133 0.0144096 0.0200897 0.0191299 0.01843 0.0156558 0.0169401 0.011547 0.0160677 
0.00669451 0.0152345 0.0146908 0.0129681 0.0102507 0.0110384 0.0050009 0.00997928 0.00928796 
0.00858309 0.00746226 0.00352516 0.0063502 0.00604689 0.0050339 0.00398632 0.00325901 -0.0012554 
0.00241029 0.0023928 0.000982433 -0.000222722 -0.000663678 -0.00163454 -0.00172348 -0.00285351 -0.00463409 
-0.00293099 -0.00149499 -0.00101827 -0.00190479 0.0207599 0.0227795 0.0249821 0.0247215 0.0162135 
0.018947 0.0226033 0.0215066 0.0148419 0.0205724 0.018143 0.0192332 0.0140461 0.0183709 
0.0179828 0.00912817 0.0159312 0.0140528 0.0135545 0.00935083 0.0125645 0.00372494 0.0111212 
0.00998348 0.00867042 0.00472485 0.0066147 -0.00152364 0.00657215 0.00444578 0.000971008 0.00271725 
-0.00573316 0.00207967 0.000856886 -0.00112196 -0.00098963 -0.00815401 -0.00167691 -0.00184467 -0.00229361 
-0.00307887 -0.00907804 -0.00322387 -0.00302788 -0.00401882 -0.00747462 -0.00445517 -0.00373283 -0.00420513 
-0.00497871 -0.00565864 -0.0108359 -0.006126 -0.00597935 -0.00626736 -0.00875736 -0.00529988 -0.00271923 
-0.00210636 -0.00316728 0.00968323 0.011834 0.0140159 0.0163082 0.0196427 0.0186016 0.00269853 
0.00639903 0.00991024 0.0161977 0.0131964 0.0161674 -0.00278525 0.00245777 0.00710765 0.012955 
0.0112143 0.00987192 -0.00702657 -0.000564194 0.00500123 0.00982656 0.00979959 -0.0101089 -0.00267382 
0.00638276 0.00365385 0.00362293 -0.012028 -0.00382461 0.00339646 0.00319334 -0.0128345 0.000165388 
-0.00394383 -0.00200158 -0.0124901 -0.00246433 -0.00299857 -0.0225358 -0.00552408 -0.0110074 -0.00722178 
-0.0203489 -0.00785899 -0.00889873 -0.0102787 -0.0174756 -0.0112124 -0.0274152 -0.0118036 -0.0134938 
-0.0132565 -0.022394 -0.0135242 -0.0140639 -0.0161823 -0.0148937 -0.0253655 -0.0144746 -0.0147043 
-0.0169953 -0.0144829 -0.0261059 -0.0131654 -0.013304 -0.0148081 -0.0130148 -0.0233266 -0.0108702 
-0.0108587 -0.0117238 -0.0177542 -0.0111244 -0.010441 -0.00989117 -0.0130266 -0.00748183 -0.00365753 
-0.00326896 -0.0489496 -0.0657787 -0.0378853 -0.0165701 -0.00485407 0.00104857 0.00462596 0.00883203 
0.00735469 0.00628577 -0.159206 -0.20152 -0.126652 -0.068067 -0.0370966 -0.02142 -0.0124727 
-0.00623419 0.00150019 -0.0013705 -0.00028283 -0.242636 -0.185916 -0.127545 -0.0843625 -0.055564 
-0.0370287 -0.0247309 -0.0157942 -0.00452073 -0.00873533 -0.00603092 -0.124327 -0.0955188 -0.0704567 
-0.050079 -0.0350349 -0.0237063 -0.00966921 -0.0146224 -0.0111899 -0.103046 -0.0805629 -0.0596115 
-0.0426777 -0.0295066 -0.0141094 -0.0188943 -0.0158502 -0.0876308 -0.0663096 -0.0479498 -0.0333852 