# vtk DataFile Version 5.1
vtk output
ASCII
DATASET STRUCTURED_GRID
DIMENSIONS 30 50 33
POINTS 49500 float
0.869 0.123893 0.182417 0.868271 0.126803 0.182417 0.867388 0.130326 0.182417 
0.866323 0.134576 0.182417 0.865044 0.13968 0.182417 0.863515 0.145777 0.182417 
0.861701 0.153017 0.182417 0.859563 0.161548 0.182417 0.857065 0.171515 0.182417 
0.854177 0.183039 0.182417 0.850876 0.196209 0.182417 0.847155 0.211058 0.182417 
0.843022 0.227547 0.182417 0.83851 0.245552 0.182417 0.833672 0.264853 0.182417 
0.828588 0.285142 0.182417 0.823352 0.306032 0.182417 0.818075 0.327087 0.182417 
0.81287 0.347858 0.182417 0.807842 0.367921 0.182417 0.803084 0.386905 0.182417 
0.798668 0.404526 0.182417 0.794642 0.420588 0.182417 0.791032 0.434992 0.182417 
0.787842 0.44772 0.182417 0.78506 0.458821 0.182417 0.782661 0.468394 0.182417 
0.780612 0.476569 0.182417 0.778877 0.483491 0.182417 0.777419 0.489311 0.182417 
0.888115 0.129777 0.182417 0.88738 0.132686 0.182417 0.88649 0.136211 0.182417 
0.885414 0.140469 0.182417 0.88412 0.145591 0.182417 0.882571 0.151719 0.182417 
0.880728 0.159006 0.182417 0.878552 0.167608 0.182417 0.876005 0.177674 0.182417 
0.873053 0.189333 0.182417 0.869673 0.202679 0.182417 0.865855 0.21775 0.182417 
0.861608 0.23451 0.182417 0.856963 0.252832 0.182417 0.851979 0.272491 0.182417 
0.846737 0.293165 0.182417 0.84134 0.314452 0.182417 0.835902 0.335899 0.182417 
0.830543 0.357039 0.182417 0.825375 0.377433 0.182417 0.820493 0.396702 0.182417 
0.815972 0.414557 0.182417 0.811859 0.430802 0.182417 0.80818 0.445343 0.182417 
0.804936 0.458168 0.182417 0.802113 0.469334 0.182417 0.799683 0.478946 0.182417 
0.797613 0.487141 0.182417 0.795863 0.494069 0.182417 0.794394 0.499886 0.182417 
0.907267 0.135673 0.182417 0.906533 0.138583 0.182417 0.905643 0.142115 0.182417 
0.904565 0.146387 0.182417 0.903266 0.151533 0.182417 0.901708 0.157699 0.182417 
0.899852 0.165043 0.182417 0.897656 0.173726 0.182417 0.895079 0.183903 0.182417 
0.892088 0.195712 0.182417 0.888656 0.209251 0.182417 0.884772 0.224564 0.182417 
0.880444 0.241616 0.182417 0.875705 0.26028 0.182417 0.870613 0.280324 0.182417 
0.865255 0.301412 0.182417 0.859737 0.323128 0.182417 0.854181 0.344998 0.182417 
0.848711 0.366538 0.182417 0.843443 0.387293 0.182417 0.838476 0.406875 0.182417 
0.833885 0.424987 0.182417 0.829718 0.441437 0.182417 0.825999 0.456133 0.182417 
0.822727 0.46907 0.182417 0.819887 0.480312 0.182417 0.817448 0.489972 0.182417 
0.815373 0.498194 0.182417 0.813623 0.505134 0.182417 0.812157 0.510952 0.182417 
0.926441 0.141575 0.182417 0.925714 0.144491 0.182417 0.92483 0.148034 0.182417 
0.923758 0.152325 0.182417 0.922465 0.157501 0.182417 0.920911 0.163712 0.182417 
0.919055 0.171122 0.182417 0.916856 0.179896 0.182417 0.914271 0.190197 0.182417 
0.911263 0.202169 0.182417 0.907806 0.215917 0.182417 0.903886 0.23149 0.182417 
0.89951 0.248857 0.182417 0.894712 0.267887 0.182417 0.889552 0.288341 0.182417 
0.884119 0.309873 0.182417 0.878524 0.332047 0.182417 0.872891 0.354371 0.182417 
0.867351 0.376342 0.182417 0.862023 0.397487 0.182417 0.857008 0.417408 0.182417 
0.852382 0.435802 0.182417 0.848194 0.452477 0.182417 0.844464 0.467345 0.182417 
0.84119 0.480408 0.182417 0.838355 0.491737 0.182417 0.835926 0.501454 0.182417 
0.833864 0.50971 0.182417 0.832129 0.516667 0.182417 0.830677 0.52249 0.182417 
0.945622 0.14748 0.182417 0.944907 0.150404 0.182417 0.944037 0.153962 0.182417 
0.942979 0.158277 0.182417 0.9417 0.163489 0.182417 0.940161 0.169753 0.182417 
0.93832 0.177236 0.182417 0.936134 0.186111 0.182417 0.933559 0.196547 0.182417 
0.930558 0.208695 0.182417 0.9271 0.222669 0.182417 0.923174 0.23852 0.182417 
0.918783 0.256222 0.182417 0.913962 0.275641 0.182417 0.908773 0.296531 0.182417 
0.903304 0.318534 0.182417 0.897672 0.341195 0.182417 0.892004 0.364003 0.182417 
0.886435 0.386433 0.182417 0.881086 0.407997 0.182417 0.87606 0.428282 0.182417 
0.871433 0.446981 0.182417 0.867253 0.4639 0.182417 0.86354 0.478957 0.182417 
0.86029 0.492158 0.182417 0.857481 0.503586 0.182417 0.85508 0.513368 0.182417 
0.853047 0.521664 0.182417 0.85134 0.528643 0.182417 0.849915 0.534474 0.182417 
0.964797 0.153382 0.182417 0.964099 0.156318 0.182417 0.963247 0.159895 0.182417 
0.96221 0.164238 0.182417 0.960955 0.169491 0.182417 0.959442 0.175813 0.182417 
0.957628 0.183378 0.182417 0.95547 0.192363 0.182417 0.952924 0.202945 0.182417 
0.949949 0.215283 0.182417 0.946517 0.229495 0.182417 0.942611 0.245643 0.182417 
0.938238 0.263698 0.182417 0.933428 0.283528 0.182417 0.928245 0.304879 0.182417 
0.92278 0.327378 0.182417 0.917151 0.350554 0.182417 0.911488 0.373874 0.182417 
0.905928 0.396792 0.182417 0.900595 0.418799 0.182417 0.895593 0.439472 0.182417 
0.890998 0.458498 0.182417 0.886857 0.47568 0.182417 0.883186 0.49094 0.182417 
0.879982 0.504294 0.182417 0.877219 0.515829 0.182417 0.874864 0.525684 0.182417 
0.872874 0.534026 0.182417 0.871207 0.541031 0.182417 0.869819 0.546874 0.182417 
0.983949 0.159278 0.182417 0.983272 0.162228 0.182417 0.982444 0.165827 0.182417 
0.981436 0.170202 0.182417 0.980212 0.175501 0.182417 0.978734 0.181888 0.182417 
0.97696 0.18954 0.182417 0.974844 0.198644 0.182417 0.972343 0.209382 0.182417 
0.969416 0.22192 0.182417 0.966031 0.236386 0.182417 0.962172 0.252845 0.182417 
0.957844 0.271272 0.182417 0.953079 0.291533 0.182417 0.947937 0.313367 0.182417 
0.942513 0.336387 0.182417 0.936923 0.360104 0.182417 0.931303 0.383961 0.182417 
0.92579 0.407391 0.182417 0.920508 0.429868 0.182417 0.915563 0.450952 0.182417 
0.911031 0.470322 0.182417 0.906955 0.487785 0.182417 0.903351 0.503263 0.182417 
0.900213 0.516779 0.182417 0.897516 0.528431 0.182417 0.895221 0.538366 0.182417 
0.893288 0.546759 0.182417 0.891672 0.553794 0.182417 0.89033 0.559652 0.182417 
1.00306 0.165163 0.182417 1.00241 0.168129 0.182417 1.00161 0.171753 0.182417 
1.00064 0.176164 0.182417 0.999454 0.181513 0.182417 0.99802 0.187969 0.182417 
0.996295 0.195716 0.182417 0.994234 0.204945 0.182417 0.991793 0.215848 0.182417 
0.988931 0.228598 0.182417 0.985615 0.243329 0.182417 0.981828 0.260113 0.182417 
0.977573 0.278928 0.182417 0.97288 0.299639 0.182417 0.967813 0.321976 0.182417 
0.962463 0.34554 0.182417 0.956949 0.36982 0.182417 0.951407 0.394238 0.182417 
0.945974 0.418204 0.182417 0.940777 0.441171 0.182417 0.93592 0.462686 0.182417 
0.931476 0.48242 0.182417 0.927491 0.500178 0.182417 0.923976 0.515885 0.182417 
0.920924 0.529575 0.182417 0.918307 0.541352 0.182417 0.916087 0.551373 0.182417 
0.914222 0.559821 0.182417 0.912667 0.566889 0.182417 0.911378 0.572764 0.182417 
1.02213 0.171031 0.182417 1.0215 0.174017 0.182417 1.02074 0.177667 0.182417 
1.0198 0.182117 0.182417 1.01866 0.187521 0.182417 1.01728 0.194051 0.182417 
1.01561 0.201897 0.182417 1.01362 0.211258 0.182417 1.01125 0.222333 0.182417 
1.00847 0.235303 0.182417 1.00524 0.25031 0.182417 1.00155 0.267432 0.182417 
0.997389 0.28665 0.182417 0.992797 0.307826 0.182417 0.987833 0.330685 0.182417 
0.982588 0.354811 0.182417 0.977182 0.379675 0.182417 0.97175 0.404675 0.182417 
0.966429 0.429198 0.182417 0.961346 0.452674 0.182417 0.956603 0.474638 0.182417 
0.952275 0.494751 0.182417 0.948401 0.512816 0.182417 0.944995 0.528765 0.182417 
0.942044 0.542636 0.182417 0.939522 0.554544 0.182417 0.937389 0.564657 0.182417 
0.935601 0.573165 0.182417 0.934114 0.580269 0.182417 0.932885 0.586163 0.182417 
1.04113 0.176879 0.182417 1.04053 0.179885 0.182417 1.0398 0.183565 0.182417 
1.03891 0.188056 0.182417 1.03782 0.193516 0.182417 1.03649 0.200124 0.182417 
1.03489 0.208074 0.182417 1.03298 0.217573 0.182417 1.03069 0.228826 0.182417 
1.02801 0.242024 0.182417 1.02488 0.257316 0.182417 1.0213 0.274786 0.182417 
1.01726 0.294419 0.182417 1.01279 0.316075 0.182417 1.00795 0.339469 0.182417 
1.00284 0.364175 0.182417 0.997574 0.38964 0.182417 0.99228 0.415241 0.182417 
0.987098 0.440336 0.182417 0.982155 0.464339 0.182417 0.977551 0.486766 0.182417 
0.973358 0.507271 0.182417 0.969616 0.525655 0.182417 0.966333 0.541854 0.182417 
0.963499 0.555914 0.182417 0.961082 0.567959 0.182417 0.959045 0.578166 0.182417 
0.957342 0.586737 0.182417 0.95593 0.59388 0.182417 0.954766 0.599794 0.182417 
1.06005 0.182703 0.182417 1.05948 0.18573 0.182417 1.05879 0.189441 0.182417 
1.05795 0.193975 0.182417 1.05691 0.199494 0.182417 1.05565 0.206182 0.182417 
1.05412 0.214239 0.182417 1.05228 0.22388 0.182417 1.05009 0.235317 0.182417 
1.04751 0.248748 0.182417 1.0445 0.264333 0.182417 1.04105 0.282159 0.182417 
1.03714 0.302216 0.182417 1.03282 0.324362 0.182417 1.02814 0.348306 0.182417 
1.02318 0.373603 0.182417 1.01807 0.399684 0.182417 1.01294 0.425899 0.182417 
1.00792 0.451582 0.182417 1.00314 0.476124 0.182417 0.998694 0.499026 0.182417 
0.994655 0.519934 0.182417 0.991058 0.538645 0.182417 0.987913 0.555101 0.182417 
0.985205 0.569354 0.182417 0.982903 0.581541 0.182417 0.980969 0.591846 0.182417 
0.979357 0.600482 0.182417 0.978024 0.607664 0.182417 0.976929 0.613601 0.182417 
1.07887 0.188498 0.182417 1.07834 0.191547 0.182417 1.07769 0.195289 0.182417 
1.07689 0.199867 0.182417 1.07591 0.205447 0.182417 1.07471 0.212217 0.182417 
1.07326 0.220385 0.182417 1.07151 0.230169 0.182417 1.06943 0.241793 0.182417 
1.06696 0.255463 0.182417 1.06408 0.271344 0.182417 1.06076 0.289533 0.182417 
1.057 0.310021 0.182417 1.05284 0.332666 0.182417 1.04833 0.357168 0.182417 
1.04355 0.383068 0.182417 1.03862 0.409775 0.182417 1.03367 0.436613 0.182417 
1.02883 0.462895 0.182417 1.02423 0.487986 0.182417 1.01996 0.511372 0.182417 
1.01609 0.532688 0.182417 1.01265 0.551733 0.182417 1.00965 0.568451 0.182417 
1.00708 0.582902 0.182417 1.00489 0.595232 0.182417 1.00307 0.605638 0.182417 
1.00155 0.61434 0.182417 1.0003 0.621563 0.182417 0.999275 0.627522 0.182417 
1.09759 0.194259 0.182417 1.09709 0.197331 0.182417 1.09648 0.201105 0.182417 
1.09573 0.205728 0.182417 1.09481 0.211369 0.182417 1.09368 0.218223 0.182417 
[...]
POINT_DATA 49500
FIELD FieldData 5
pressure 1 49500 float
0.351508 0.351508 0.344762 0.34097 0.336356 0.332893 0.330488 0.329521 0.328843 
0.328239 0.327851 0.327733 0.32805 0.32897 0.329896 0.329227 0.327081 0.325408 
0.326644 0.323997 0.292788 0.257875 0.247722 0.246541 0.246503 0.246684 0.246809 
0.246861 0.246841 0.246778 0.441537 0.441537 0.438268 0.429047 0.412779 0.388907 
0.360391 0.34122 0.332154 0.329043 0.327954 0.328043 0.328961 0.329617 0.329094 
0.32759 0.32637 0.328404 0.332365 0.325685 0.303431 0.26774 0.249206 0.246868 
0.246658 0.246736 0.246778 0.246767 0.246726 0.246686 0.439094 0.439094 0.440089 
0.43952 0.43775 0.432586 0.420623 0.393165 0.358371 0.337462 0.330549 0.329044 
0.328936 0.328605 0.327622 0.3271 0.32856 0.330784 0.329549 0.322683 0.314787 
0.280725 0.252546 0.247408 0.246697 0.246574 0.246568 0.24659 0.246622 0.246677 
0.433453 0.433453 0.43346 0.433041 0.43219 0.431492 0.430999 0.427487 0.415179 
0.378848 0.344906 0.332121 0.328591 0.327454 0.327252 0.328562 0.330072 0.328785 
0.326452 0.325436 0.323785 0.295313 0.258626 0.248131 0.246679 0.24645 0.24653 
0.246666 0.246769 0.246858 0.437052 0.437052 0.437507 0.43752 0.43813 0.438972 
0.439569 0.439423 0.435641 0.421653 0.39025 0.347693 0.330954 0.327733 0.328101 
0.329263 0.329024 0.327752 0.32836 0.330532 0.327002 0.305287 0.269621 0.249762 
0.246932 0.246574 0.246635 0.246721 0.246752 0.246772 0.438478 0.438478 0.438981 
0.438968 0.439022 0.438821 0.438514 0.437486 0.436097 0.43506 0.42713 0.391837 
0.346648 0.331008 0.328832 0.328797 0.328492 0.328704 0.329775 0.329466 0.32497 
0.316532 0.283877 0.253766 0.247586 0.246668 0.246519 0.246522 0.246542 0.246596 
0.436997 0.436997 0.437305 0.437078 0.437083 0.436764 0.436763 0.436557 0.436657 
0.436136 0.432647 0.421987 0.38987 0.344766 0.330827 0.328719 0.32871 0.329219 
0.329227 0.328427 0.32727 0.324164 0.299373 0.261662 0.248641 0.246781 0.246473 
0.246529 0.246687 0.246867 0.436746 0.436746 0.436957 0.436854 0.436863 0.436738 
0.436636 0.436522 0.436364 0.435832 0.435112 0.434292 0.425053 0.381816 0.340152 
0.329996 0.328869 0.328992 0.329012 0.329312 0.329973 0.326678 0.309745 0.275411 
0.251496 0.247455 0.246908 0.246976 0.247137 0.247243 0.43728 0.43728 0.437505 
0.437472 0.437518 0.43739 0.437097 0.436758 0.436287 0.435959 0.436274 0.437258 
0.435214 0.415988 0.367151 0.335543 0.329544 0.329013 0.329425 0.329727 0.328177 
0.324599 0.320606 0.29329 0.258261 0.248852 0.247448 0.247146 0.247089 0.247089 
0.436965 0.436965 0.437192 0.437144 0.437184 0.437033 0.436903 0.436768 0.43671 
0.437067 0.437966 0.439106 0.438093 0.429232 0.406062 0.353591 0.332394 0.329599 
0.329234 0.328794 0.327829 0.328536 0.328817 0.307927 0.272146 0.251541 0.247909 
0.247165 0.247014 0.247055 0.436246 0.436246 0.436403 0.43631 0.436371 0.436365 
0.436579 0.437168 0.438101 0.439303 0.439795 0.438976 0.436262 0.433006 0.430537 
0.390643 0.343419 0.330936 0.328929 0.328709 0.329686 0.331041 0.326793 0.315975 
0.29272 0.258579 0.249152 0.247543 0.247211 0.247179 0.437068 0.437068 0.437144 
0.437113 0.437183 0.437335 0.437745 0.438392 0.439364 0.439883 0.439248 0.437712 
0.435964 0.437732 0.43557 0.414102 0.370117 0.336039 0.329677 0.329684 0.330319 
0.329362 0.326185 0.324889 0.311669 0.272784 0.252534 0.248234 0.247314 0.24701 
0.439855 0.439855 0.440002 0.440067 0.440294 0.440425 0.440436 0.440067 0.439558 
0.438476 0.43756 0.437255 0.438178 0.441103 0.440709 0.430285 0.403726 0.350856 
0.332336 0.330308 0.329644 0.329293 0.329256 0.329161 0.319525 0.295784 0.261618 
0.250027 0.247662 0.247021 0.442275 0.442275 0.44245 0.442479 0.44266 0.44248 
0.442012 0.441045 0.439665 0.43808 0.437375 0.438365 0.440191 0.441841 0.437949 
0.430623 0.4259 0.38336 0.340753 0.331589 0.329839 0.330026 0.329899 0.327224 
0.322612 0.315189 0.283364 0.256324 0.24906 0.247391 0.441757 0.441757 0.441917 
0.441844 0.441851 0.441587 0.441208 0.440682 0.43994 0.439462 0.439555 0.440317 
0.441062 0.439137 0.43602 0.435611 0.436008 0.409325 0.362044 0.335653 0.330482 
0.330168 0.329684 0.328461 0.328043 0.324537 0.303581 0.274566 0.254034 0.248956 
0.439608 0.439608 0.439705 0.439529 0.439486 0.439239 0.439272 0.439567 0.440347 
0.441306 0.442001 0.441787 0.439882 0.437236 0.436408 0.44139 0.443081 0.42669 
0.392648 0.346961 0.33212 0.330311 0.329785 0.329472 0.32851 0.324042 0.317189 
0.302719 0.270715 0.254604 0.437815 0.437815 0.437872 0.437708 0.437737 0.437782 
0.438245 0.439065 0.44043 0.441878 0.442645 0.441569 0.439037 0.437243 0.439765 
0.445506 0.440707 0.430212 0.418582 0.371848 0.337714 0.33115 0.329862 0.329269 
0.328497 0.326838 0.325881 0.319015 0.299365 0.273894 0.438074 0.438074 0.438151 
0.43817 0.438331 0.438537 0.438968 0.439444 0.440358 0.440864 0.44063 0.439601 
0.438522 0.439785 0.442686 0.443838 0.438769 0.435672 0.436129 0.401269 0.354193 
0.333898 0.330332 0.329613 0.329417 0.32881 0.328289 0.324435 0.318861 0.307175 
0.439569 0.439569 0.439708 0.439774 0.43997 0.440109 0.440242 0.440031 0.439855 
0.438828 0.437999 0.43777 0.43939 0.442328 0.444093 0.441202 0.437953 0.441876 
0.441165 0.41887 0.381415 0.342633 0.332218 0.33032 0.33018 0.329836 0.329325 
0.327978 0.326649 0.321861 0.440742 0.440742 0.44088 0.440904 0.441042 0.440995 
0.440697 0.439955 0.438856 0.437284 0.436503 0.437462 0.440544 0.443333 0.442401 
0.438794 0.439172 0.445442 0.443968 0.433042 0.41052 0.361287 0.337367 0.331769 
0.331365 0.331102 0.330846 0.329992 0.329395 0.326883 0.440427 0.440427 0.440534 
0.440483 0.440459 0.44018 0.439706 0.438887 0.437924 0.436914 0.437182 0.438708 
0.441098 0.441788 0.44008 0.439002 0.441518 0.446307 0.440898 0.435239 0.429588 
0.394494 0.35091 0.33489 0.33218 0.330875 0.330062 0.329077 0.328241 0.32771 
0.438747 0.438747 0.438796 0.438608 0.438477 0.438097 0.437727 0.437372 0.437394 
0.437912 0.439054 0.440168 0.440638 0.439555 0.438271 0.439669 0.442677 0.443277 
0.439341 0.439214 0.442441 0.420697 0.379705 0.343614 0.333956 0.331267 0.330292 
0.329838 0.329569 0.329329 0.436712 0.436712 0.43672 0.436512 0.436397 0.436136 
0.436128 0.436509 0.437509 0.438993 0.440467 0.440908 0.439614 0.437814 0.437611 
0.440124 0.442245 0.440445 0.438814 0.442847 0.442972 0.433295 0.413338 0.364652 
0.339408 0.332842 0.330665 0.329843 0.329377 0.329118 0.435423 0.435423 0.435421 
0.4353 0.435293 0.435328 0.435732 0.436572 0.437969 0.439539 0.440739 0.440513 
0.43871 0.437036 0.437746 0.440012 0.44052 0.43794 0.439162 0.444356 0.443279 
0.439753 0.435712 0.400792 0.356468 0.337572 0.332469 0.331041 0.330722 0.330725 
0.435549 0.435549 0.435558 0.435597 0.435736 0.43601 0.436544 0.437272 0.43843 
0.439423 0.439758 0.439204 0.437976 0.43724 0.438296 0.439464 0.438315 0.437604 
0.439965 0.444153 0.442876 0.440524 0.442123 0.421964 0.392118 0.353193 0.337691 
0.333157 0.331571 0.330649 0.436899 0.436899 0.436955 0.437062 0.437289 0.43758 
0.437955 0.438263 0.438746 0.438751 0.438295 0.437676 0.437442 0.437906 0.438799 
0.438527 0.437041 0.437283 0.440067 0.442582 0.44128 0.442071 0.444688 0.434782 
0.423089 0.387601 0.353381 0.338488 0.333558 0.331861 0.438711 0.438711 0.438776 
0.43889 0.439079 0.439266 0.43937 0.439138 0.438871 0.437984 0.437013 0.43649 
0.437145 0.438439 0.438935 0.437633 0.43626 0.437612 0.439648 0.441123 0.441255 
0.443278 0.441644 0.436657 0.43907 0.420044 0.389233 0.355537 0.339908 0.335499 
0.440147 0.440147 0.440209 0.440268 0.440397 0.440432 0.440236 0.439701 0.43886 
0.437496 0.436345 0.435952 0.437046 0.438538 0.438727 0.436988 0.436134 0.437852 
0.439313 0.439785 0.440463 0.442158 0.439521 0.440239 0.442104 0.437116 0.424901 
0.394924 0.362008 0.346207 0.440824 0.440824 0.44086 0.440858 0.440872 0.440781 
0.440425 0.439746 0.438769 0.437418 0.436402 0.436146 0.437123 0.438289 0.438068 
0.4366 0.436488 0.43807 0.438749 0.438961 0.439436 0.44013 0.439902 0.441255 
0.441388 0.441091 0.439558 0.424997 0.405525 0.379524 0.440702 0.440702 0.440721 
0.440656 0.440608 0.440437 0.440012 0.439385 0.438643 0.437688 0.4371 0.436907 
0.437394 0.437725 0.437246 0.436526 0.437062 0.438188 0.438112 0.438264 0.438544 
0.438585 0.439817 0.441715 0.442142 0.442975 0.441909 0.437205 0.43282 0.418564 
0.439978 0.439978 0.439976 0.439883 0.439786 0.439593 0.439257 0.438806 0.438509 
0.438157 0.438078 0.437947 0.437757 0.437149 0.436514 0.436597 0.437584 0.438227 
0.437633 0.437632 0.437777 0.437685 0.439687 0.441773 0.441834 0.441549 0.439744 
0.438035 0.437392 0.437052 0.438996 0.438996 0.43897 0.438874 0.438775 0.438621 
0.438406 0.438282 0.438421 0.438632 0.439015 0.438918 0.438143 0.436748 0.436041 
0.436763 0.437989 0.438182 0.437301 0.437114 0.437163 0.4373 0.439604 0.441131 
0.44055 0.439965 0.439963 0.440892 0.441825 0.44173 0.438004 0.438004 0.437972 
0.437893 0.437817 0.437752 0.437726 0.43788 0.438375 0.439006 0.439645 0.439613 
0.438439 0.436657 0.435883 0.436999 0.438217 0.438106 0.437074 0.43672 0.436676 
0.437274 0.439287 0.440201 0.439034 0.439366 0.440561 0.442011 0.440919 0.44103 
0.437325 0.437325 0.43729 0.437247 0.437213 0.437238 0.437353 0.437703 0.438369 
0.439171 0.439899 0.439862 0.438651 0.436818 0.436103 0.437225 0.438297 0.437986 
0.436947 0.436462 0.436402 0.437286 0.438835 0.439006 0.43802 0.439339 0.440481 
0.44111 0.440399 0.440675 0.437003 0.437003 0.436976 0.436976 0.436991 0.437103 
0.437309 0.437724 0.43839 0.439146 0.43975 0.439721 0.438698 0.437226 0.436576 
0.437467 0.438245 0.43785 0.436878 0.436356 0.436295 0.437265 0.438235 0.437896 
0.437451 0.439159 0.439787 0.440212 0.4399 0.440044 0.437165 0.437165 0.437138 
0.437158 0.437205 0.437343 0.437541 0.43788 0.438416 0.438957 0.439332 0.439251 
0.438637 0.437708 0.437237 0.437704 0.43814 0.437667 0.436866 0.436352 0.436319 
0.437119 0.437529 0.436968 0.43729 0.438816 0.438957 0.439213 0.439362 0.439576 
0.437649 0.437649 0.437623 0.437663 0.437717 0.437856 0.437987 0.438162 0.438442 
0.438676 0.438742 0.438653 0.438436 0.438209 0.437926 0.437992 0.437968 0.437496 
0.436852 0.436449 0.436379 0.436868 0.436843 0.436252 0.437189 0.438454 0.438135 
0.438414 0.438912 0.43926 0.438253 0.438253 0.438227 0.438276 0.438328 0.438444 
0.438493 0.438507 0.43849 0.438362 0.438148 0.438002 0.438206 0.438599 0.438583 
0.43827 0.437823 0.437323 0.436883 0.436548 0.436426 0.436567 0.436247 0.435749 
0.437027 0.437993 0.437551 0.437757 0.43835 0.438695 0.438872 0.438872 0.438846 
0.438883 0.438913 0.438991 0.43895 0.438819 0.43855 0.438101 0.437631 0.43747 
0.437938 0.43887 0.439109 0.438535 0.437699 0.437185 0.436892 0.436689 0.436398 
0.436271 0.435767 0.435429 0.436765 0.437464 0.43704 0.437244 0.437757 0.438227 
0.439354 0.439354 0.439328 0.439354 0.439366 0.439406 0.439271 0.439019 0.438587 
0.437927 0.437295 0.437071 0.437735 0.438966 0.439485 0.438749 0.437629 0.437049 
0.436921 0.436758 0.436373 0.435954 0.435418 0.435235 0.436462 0.436884 0.436584 
0.436762 0.4372 0.437743 0.439621 0.439621 0.439599 0.439613 0.43961 0.439623 
0.439445 0.439094 0.43858 0.437845 0.43714 0.436898 0.437568 0.438957 0.439664 
0.438906 0.437611 0.436956 0.436891 0.436827 0.436265 0.435703 0.435132 0.435121 
0.436121 0.436328 0.436162 0.436392 0.436778 0.437416 0.439613 0.439613 0.439599 
0.439604 0.439595 0.439594 0.439385 0.439052 0.438541 0.437823 0.437169 0.436902 
0.437515 0.438835 0.439684 0.43898 0.43763 0.436903 0.436867 0.436805 0.436181 
0.435432 0.434986 0.435016 0.435748 0.435835 0.435819 0.436104 0.436403 0.436964 
0.439448 0.439448 0.439426 0.439427 0.439387 0.439376 0.439166 0.438868 0.438461 
0.437871 0.437302 0.437083 0.437527 0.438678 0.439538 0.438983 0.437667 0.436877 
0.43683 0.436765 0.436045 0.435245 0.434832 0.43495 0.435348 0.43543 0.435585 
0.435837 0.436032 0.436475 0.439078 0.439078 0.439062 0.439059 0.439025 0.439008 
0.438816 0.438597 0.438337 0.437934 0.437556 0.437347 0.437642 0.438496 0.439305 
0.438903 0.43771 0.436875 0.436782 0.436704 0.435921 0.435065 0.434783 0.434826 
0.434987 0.435139 0.435345 0.435563 0.435686 0.435976 0.438617 0.438617 0.438599 
0.438601 0.438553 0.438563 0.438421 0.438292 0.438179 0.438001 0.437806 0.437693 
0.437769 0.438318 0.438989 0.438767 0.437724 0.436878 0.436718 0.436607 0.435793 
0.434947 0.434723 0.434723 0.434648 0.434885 0.435135 0.435283 0.435319 0.435466 
0.438116 0.438116 0.438093 0.438092 0.438059 0.438074 0.437989 0.437973 0.438018 
0.438065 0.438101 0.43804 0.437984 0.438154 0.438662 0.438583 0.437742 0.43689 
0.436663 0.436511 0.435684 0.434881 0.434716 0.434613 0.434405 0.434665 0.434909 
0.434986 0.434966 0.434997 0.437669 0.437669 0.437645 0.437647 0.437607 0.437646 
0.437595 0.437669 0.437827 0.438078 0.438291 0.438358 0.43814 0.438009 0.438283 
0.438349 0.437701 0.436878 0.436561 0.436368 0.435556 0.434836 0.43468 0.434468 
0.434167 0.434458 0.434665 0.434664 0.434604 0.434609 0.437204 0.437204 0.437191 
0.437206 0.437197 0.437259 0.437268 0.437435 0.437731 0.438116 0.438516 0.438646 
0.438376 0.437931 0.437984 0.438121 0.437694 0.436909 0.436524 0.43627 0.435486 
0.434846 0.434711 0.434358 0.434066 0.434271 0.434435 0.434406 0.434298 0.43415 
0.436829 0.436829 0.436807 0.436845 0.436845 0.436949 0.437004 0.437178 0.437514 
0.438037 0.438533 0.438786 0.438443 0.4378 0.437608 0.437804 0.437542 0.436827 
0.436362 0.436085 0.435338 0.434787 0.434614 0.434153 0.433878 0.434059 0.434173 
0.434028 0.433852 0.433717 0.436547 0.436547 0.436523 0.436546 0.436562 0.436698 
0.436869 0.437191 0.437566 0.438129 0.438725 0.439034 0.438726 0.437876 0.437456 
0.437646 0.437567 0.436921 0.436404 0.436054 0.435389 0.434906 0.434724 0.43419 
0.433933 0.433936 0.434023 0.433911 0.433659 0.433503 0.351874 0.351874 0.345077 
0.341281 0.336622 0.333108 0.330667 0.329663 0.328972 0.328418 0.328056 0.327959 
0.328225 0.328956 0.329731 0.329005 0.32704 0.325497 0.326166 0.324165 0.29271 
0.257544 0.247578 0.246407 0.246325 0.246445 0.246487 0.246442 0.246329 0.246178 
0.441621 0.441621 0.438397 0.429185 0.413066 0.38899 0.360479 0.341518 0.332555 
0.329428 0.328373 0.32843 0.329219 0.3296 0.328865 0.327294 0.326402 0.328301 
0.331965 0.325412 0.303246 0.267384 0.249012 0.246712 0.246493 0.246564 0.246555 
0.246457 0.246305 0.246146 0.440593 0.440593 0.441643 0.441064 0.43944 0.434328 
0.422694 0.394905 0.359843 0.338275 0.331119 0.329452 0.329076 0.328601 0.327558 
0.327246 0.32854 0.33061 0.329235 0.322415 0.31455 0.280241 0.252281 0.247259 
0.246569 0.246438 0.246361 0.246281 0.246192 0.246144 0.432464 0.432464 0.432406 
0.432206 0.431202 0.430526 0.430042 0.426611 0.414492 0.379644 0.345578 0.33253 
0.328884 0.327743 0.327649 0.328871 0.330126 0.328734 0.326399 0.325333 0.32381 
0.294751 0.258298 0.247971 0.246515 0.246265 0.246281 0.246357 0.246388 0.246417 
0.4386 0.4386 0.439119 0.439123 0.439926 0.440843 0.441351 0.441665 0.438584 
0.423276 0.391548 0.348471 0.331497 0.328294 0.32867 0.329682 0.329219 0.327864 
0.328175 0.33021 0.326299 0.305243 0.269 0.249508 0.246701 0.246343 0.246405 
0.246489 0.246484 0.246458 0.438467 0.438467 0.438959 0.438769 0.43874 0.438277 
0.437711 0.43628 0.434302 0.432622 0.426289 0.392814 0.347657 0.331784 0.329494 
0.329332 0.328813 0.328721 0.329526 0.329162 0.324793 0.316591 0.283344 0.253397 
0.247356 0.246485 0.246349 0.246344 0.246321 0.24632 0.437 0.437 0.437254 
0.437064 0.437032 0.436942 0.437167 0.437443 0.438288 0.438881 0.436949 0.423317 
0.391623 0.345982 0.331593 0.329324 0.329072 0.329303 0.329273 0.32848 0.327258 
0.324561 0.298622 0.261183 0.248404 0.246577 0.24626 0.246279 0.246387 0.246521 
0.437704 0.437704 0.437939 0.437918 0.438028 0.438083 0.438023 0.437913 0.437345 
0.435824 0.433384 0.4307 0.424459 0.383694 0.341322 0.330664 0.329327 0.329304 
0.329292 0.329444 0.329708 0.325595 0.309428 0.275168 0.251162 0.247148 0.246589 
0.246657 0.246828 0.246958 0.438274 0.438274 0.438532 0.43849 0.43856 0.438363 
0.437904 0.437111 0.43593 0.435137 0.436127 0.439535 0.439118 0.414721 0.368989 
0.336463 0.330171 0.329538 0.329876 0.329988 0.328182 0.324845 0.320416 0.292819 
0.257804 0.248545 0.247191 0.246921 0.246885 0.246881 0.436965 0.436965 0.437218 
0.437125 0.437101 0.436763 0.43652 0.436399 0.43657 0.437877 0.439677 0.440936 
0.437209 0.428222 0.407206 0.354965 0.333305 0.33038 0.329825 0.329113 0.32783 
0.328029 0.328584 0.306962 0.271703 0.251221 0.247641 0.246903 0.246734 0.246744 
0.435545 0.435545 0.435692 0.435546 0.43557 0.435586 0.436121 0.43712 0.438748 
0.440436 0.440746 0.438562 0.43543 0.434051 0.431384 0.391594 0.344688 0.331839 
0.329566 0.329031 0.32973 0.330958 0.326437 0.315635 0.292255 0.258158 0.248835 
0.247234 0.246916 0.246888 0.436756 0.436756 0.436837 0.436843 0.43698 0.437237 
0.437821 0.438608 0.439712 0.439887 0.438643 0.436938 0.435694 0.438604 0.436053 
0.415267 0.371441 0.337017 0.330353 0.330198 0.330574 0.329332 0.325884 0.324777 
0.31039 0.272174 0.252151 0.247994 0.247118 0.246841 0.440284 0.440284 0.440447 
0.44054 0.440798 0.440918 0.440782 0.440075 0.43906 0.437521 0.436447 0.436591 
0.438153 0.441401 0.440032 0.430563 0.40453 0.352 0.333128 0.330986 0.330128 
0.329516 0.329123 0.329525 0.318623 0.295445 0.261249 0.249797 0.247452 0.246829 
0.442618 0.442618 0.442804 0.442826 0.44296 0.442679 0.44202 0.440764 0.438987 
0.437104 0.436484 0.437963 0.4399 0.441418 0.43761 0.43185 0.42623 0.384051 
0.341707 0.332351 0.330458 0.330301 0.329908 0.327535 0.321805 0.316148 0.282102 
0.255846 0.248724 0.247089 0.44159 0.44159 0.44174 0.441601 0.441538 0.44115 
0.440668 0.440128 0.439442 0.439193 0.439335 0.440092 0.44046 0.43843 0.435711 
0.435921 0.435617 0.409653 0.362916 0.336399 0.331189 0.330791 0.330097 0.328876 
0.327527 0.325096 0.302986 0.273016 0.253276 0.248461 0.439258 0.439258 0.43935 
0.43916 0.439086 0.438805 0.438883 0.439306 0.440292 0.441467 0.442163 0.441751 
0.439384 0.436692 0.435837 0.440386 0.442386 0.426886 0.39355 0.347775 0.333027 
0.331137 0.330365 0.329897 0.328068 0.32537 0.316503 0.301755 0.268527 0.253616 
0.437774 0.437774 0.437791 0.437663 0.437699 0.437796 0.438326 0.439242 0.440745 
0.442301 0.443022 0.441759 0.438901 0.436862 0.438899 0.444185 0.439394 0.429149 
0.418524 0.373257 0.338889 0.332005 0.330344 0.329777 0.328637 0.327201 0.325623 
0.319235 0.297817 0.271215 0.438425 0.438425 0.438512 0.438555 0.438772 0.439043 
0.439535 0.440022 0.44097 0.441411 0.441006 0.439898 0.438626 0.439604 0.441796 
0.442607 0.437545 0.434718 0.435366 0.401572 0.355543 0.334814 0.330946 0.330029 
0.329906 0.329557 0.328792 0.325121 0.319139 0.306372 0.440363 0.440363 0.440504 
0.440587 0.440821 0.441003 0.441144 0.440904 0.440655 0.439436 0.438426 0.438119 
0.439565 0.442294 0.443606 0.440764 0.437222 0.441003 0.440011 0.418003 0.382254 
0.343723 0.333094 0.330748 0.330578 0.330483 0.329306 0.327879 0.325274 0.321326 
0.441747 0.441747 0.441883 0.441924 0.442064 0.442029 0.441718 0.440931 0.439715 
0.437924 0.436983 0.437787 0.44073 0.443619 0.442823 0.439269 0.438933 0.444541 
0.442819 0.431599 0.410228 0.36228 0.338458 0.332274 0.331552 0.331559 0.330693 
0.330296 0.329004 0.326881 0.441344 0.441344 0.441448 0.441388 0.441372 0.441085 
0.44058 0.439707 0.438663 0.437522 0.43767 0.439088 0.44147 0.44252 0.440942 
0.439606 0.441591 0.44614 0.440061 0.433877 0.428534 0.394588 0.35202 0.335575 
0.332503 0.33146 0.330452 0.329813 0.329181 0.328885 0.439335 0.439335 0.439386 
0.439171 0.439023 0.438613 0.438224 0.437831 0.437835 0.438367 0.439544 0.440735 
0.441353 0.440489 0.439203 0.440392 0.443427 0.443634 0.43899 0.438205 0.440493 
0.418852 0.380188 0.344665 0.334445 0.332044 0.331008 0.330693 0.330373 0.330179 
0.436893 0.436893 0.436901 0.436665 0.436517 0.436222 0.436171 0.43659 0.437635 
0.439247 0.44094 0.441626 0.440528 0.438768 0.438464 0.44097 0.443178 0.441226 
0.438761 0.442428 0.442065 0.431443 0.412534 0.365832 0.340175 0.333816 0.331472 
0.330496 0.329866 0.329592 0.435332 0.435332 0.435321 0.435184 0.435144 0.435138 
0.435544 0.436408 0.437914 0.439693 0.441163 0.441248 0.439599 0.437872 0.438477 