# vtk DataFile Version 5.1
vtk output
ASCII
DATASET POLYDATA
POINTS 938 float
1.00217 0.847833 0.5 0.991376 0.858624 0.5 0.988126 0.861874 0.5 
0.978464 0.871536 0.5 0.96801 0.88199 0.5 0.962199 0.887801 0.5 
0.947904 0.902096 0.5 0.940607 0.909393 0.5 0.927793 0.922207 0.5 
0.911017 0.938983 0.5 0.90765 0.94235 0.5 0.887432 0.962568 0.5 
0.871041 0.978959 0.5 0.867086 0.982914 0.5 0.846546 1.00345 0.5 
0.825732 1.02427 0.5 0.820972 1.02903 0.5 0.804552 1.04545 0.5 
0.7829 1.0671 0.5 0.76581 1.08419 0.5 0.760659 1.08934 0.5 
0.737696 1.1123 0.5 0.713862 1.13614 0.5 0.713175 1.13682 0.5 
0.688866 1.16113 0.5 0.668113 1.18189 0.5 0.662658 1.18734 0.5 
0.635327 1.21467 0.5 0.630991 1.21901 0.5 0.999941 0.847059 0.503 
0.989106 0.857894 0.503 0.988053 0.858947 0.503 0.988019 0.857545 0.504436 
0.976151 0.870849 0.503 0.967919 0.879081 0.503 0.959845 0.887155 0.503 
0.947795 0.899205 0.503 0.938221 0.908779 0.503 0.927667 0.919333 0.503 
0.908616 0.938384 0.503 0.907507 0.939493 0.503 0.907438 0.938091 0.504471 
0.887274 0.959726 0.503 0.868649 0.978351 0.503 0.866915 0.980085 0.503 
0.866783 0.977877 0.50534 0.846364 1.00064 0.503 0.825544 1.02146 0.503 
0.818613 1.02839 0.503 0.804361 1.04264 0.503 0.782713 1.06429 0.503 
0.763511 1.08349 0.503 0.760484 1.08652 0.503 0.737538 1.10946 0.503 
0.713733 1.13327 0.503 0.710922 1.13608 0.503 0.688771 1.15823 0.503 
0.665888 1.18111 0.503 0.662603 1.1844 0.503 0.635317 1.21168 0.503 
0.628764 1.21824 0.503 0.997643 0.846262 0.506095 0.98798 0.855925 0.506095 
0.986763 0.857142 0.506095 0.973764 0.870141 0.506095 0.967829 0.876077 0.506095 
0.957417 0.886488 0.506095 0.947687 0.896218 0.506095 0.93576 0.908145 0.506095 
0.92754 0.916365 0.506095 0.907363 0.936542 0.506095 0.906138 0.937767 0.506095 
0.887114 0.956792 0.506095 0.866741 0.977164 0.506095 0.866181 0.977724 0.506095 
0.84618 0.997725 0.506095 0.825352 1.01855 0.506095 0.816183 1.02772 0.506095 
0.804169 1.03974 0.506095 0.782524 1.06138 0.506095 0.761133 1.08277 0.506095 
0.760304 1.0836 0.506095 0.760237 1.0825 0.507262 0.737378 1.10653 0.506095 
0.713601 1.1303 0.506095 0.708598 1.13531 0.506095 0.688674 1.15523 0.506095 
0.663585 1.18032 0.506095 0.662546 1.18136 0.506095 0.662521 1.17995 0.507529 
0.635307 1.2086 0.506095 0.626467 1.21744 0.506095 0.995202 0.845414 0.509384 
0.987907 0.852709 0.509384 0.984274 0.856342 0.509384 0.971228 0.869388 0.509384 
0.967737 0.872879 0.509384 0.954836 0.88578 0.509384 0.947576 0.89304 0.509384 
0.933144 0.907472 0.509384 0.92741 0.913206 0.509384 0.907214 0.933402 0.509384 
0.903505 0.937111 0.509384 0.886948 0.953668 0.509384 0.866561 0.974055 0.509384 
0.863557 0.977059 0.509384 0.845988 0.994628 0.509384 0.825153 1.01546 0.509384 
0.8136 1.02702 0.509384 0.803966 1.03665 0.509384 0.782326 1.05829 0.509384 
0.760117 1.0805 0.509384 0.758608 1.08201 0.509384 0.73721 1.10341 0.509384 
0.713462 1.12715 0.509384 0.706128 1.13449 0.509384 0.688572 1.15204 0.509384 
0.662488 1.17813 0.509384 0.661145 1.17947 0.509384 0.635296 1.20532 0.509384 
0.624025 1.21659 0.509384 0.992539 0.84449 0.512971 0.987832 0.849197 0.512971 
0.98156 0.855469 0.512971 0.968461 0.868568 0.512971 0.967642 0.869387 0.512971 
0.967614 0.868316 0.51407 0.952022 0.885007 0.512971 0.94746 0.889569 0.512971 
0.930292 0.906737 0.512971 0.927273 0.909756 0.512971 0.927128 0.905923 0.516949 
0.907056 0.929973 0.512971 0.900633 0.936396 0.512971 0.886772 0.950257 0.512971 
0.866369 0.97066 0.512971 0.860698 0.976331 0.512971 0.845783 0.991246 0.512971 
0.82494 1.01209 0.512971 0.810783 1.02625 0.512971 0.803751 1.03328 0.512971 
0.782114 1.05491 0.512971 0.759916 1.07711 0.512971 0.755856 1.08117 0.512971 
0.737029 1.1 0.512971 0.713312 1.12372 0.512971 0.703434 1.13359 0.512971 
0.688462 1.14857 0.512971 0.662424 1.17461 0.512971 0.658483 1.17855 0.512971 
0.635285 1.20174 0.512971 0.621362 1.21567 0.512971 0.989571 0.84346 0.516969 
0.987754 0.845277 0.516969 0.987707 0.842813 0.519479 0.978534 0.854497 0.516969 
0.967542 0.865489 0.516969 0.965378 0.867653 0.516969 0.948885 0.884146 0.516969 
0.947337 0.885694 0.516969 0.947276 0.883704 0.519019 0.927127 0.905904 0.516969 
0.927112 0.905919 0.516969 0.906888 0.926143 0.516969 0.897433 0.935598 0.516969 
0.886583 0.946448 0.516969 0.866161 0.96687 0.516969 0.857509 0.975522 0.516969 
0.845562 0.987469 0.516969 0.824709 1.00832 0.516969 0.807643 1.02539 0.516969 
0.803515 1.02952 0.516969 0.781882 1.05115 0.516969 0.759696 1.07334 0.516969 
0.75279 1.08024 0.516969 0.736831 1.0962 0.516969 0.713148 1.11988 0.516969 
0.700428 1.1326 0.516969 0.688342 1.14469 0.516969 0.662354 1.17068 0.516969 
0.655517 1.17751 0.516969 0.635272 1.19776 0.516969 0.618394 1.21464 0.516969 
0.986203 0.842291 0.521506 0.9751 0.853394 0.521506 0.967435 0.861059 0.521506 
0.961879 0.866615 0.521506 0.947205 0.881289 0.521506 0.945325 0.883169 0.521506 
0.926969 0.901525 0.521506 0.923504 0.90499 0.521506 0.906704 0.92179 0.521506 
0.893801 0.934693 0.521506 0.886375 0.942119 0.521506 0.865933 0.962561 0.521506 
0.853891 0.974603 0.521506 0.845317 0.983177 0.521506 0.824452 1.00404 0.521506 
0.804083 1.02441 0.521506 0.803254 1.02524 0.521506 0.803189 1.02417 0.522645 
0.781623 1.04687 0.521506 0.759451 1.06904 0.521506 0.749308 1.07919 0.521506 
0.736611 1.09188 0.521506 0.712966 1.11553 0.521506 0.697022 1.13147 0.521506 
0.688207 1.14029 0.521506 0.662275 1.16622 0.521506 0.652145 1.17635 0.521506 
0.635258 1.19324 0.521506 0.615026 1.21347 0.521506 0.982327 0.840947 0.526726 
0.97115 0.852124 0.526726 0.967323 0.855951 0.526726 0.967221 0.850861 0.531919 
0.957853 0.865421 0.526726 0.947063 0.876211 0.526726 0.94123 0.882044 0.526726 
0.926797 0.896477 0.526726 0.919352 0.903922 0.526726 0.906503 0.916771 0.526726 
0.889623 0.933651 0.526726 0.886148 0.937126 0.526726 0.885956 0.932738 0.531306 
0.865681 0.957593 0.526726 0.849728 0.973546 0.526726 0.845045 0.978229 0.526726 
0.824167 0.999107 0.526726 0.802963 1.02031 0.526726 0.799987 1.02329 0.526726 
0.781334 1.04194 0.526726 0.759175 1.0641 0.526726 0.745298 1.07798 0.526726 
0.736362 1.08691 0.526726 0.71276 1.11051 0.526726 0.693101 1.13017 0.526726 
0.688055 1.13522 0.526726 0.662187 1.16109 0.526726 0.648272 1.175 0.526726 
0.635242 1.18803 0.526726 0.611151 1.21212 0.526726 0.607398 1.21082 0.531782 
0.977823 0.839382 0.532795 0.967204 0.850001 0.532795 0.966557 0.850648 0.532795 
0.953173 0.864032 0.532795 0.946911 0.870294 0.532795 0.936468 0.880737 0.532795 
0.926611 0.890594 0.532795 0.914526 0.902679 0.532795 0.906284 0.910921 0.532795 
0.885896 0.931309 0.532795 0.884764 0.932441 0.532795 0.8654 0.951805 0.532795 
0.844889 0.972316 0.532795 0.844742 0.972463 0.532795 0.844732 0.972276 0.532992 
0.823847 0.993358 0.532795 0.802634 1.01457 0.532795 0.79522 1.02199 0.532795 
0.781009 1.0362 0.532795 0.758864 1.05834 0.532795 0.740643 1.07656 0.532795 
0.736081 1.08112 0.532795 0.735797 1.07509 0.539109 0.712527 1.10468 0.532795 
0.688538 1.12867 0.532795 0.687883 1.12932 0.532795 0.687857 1.12844 0.533701 
0.662087 1.15512 0.532795 0.643768 1.17344 0.532795 0.635224 1.18198 0.532795 
0.60741 1.20979 0.532795 0.606646 1.21056 0.532795 0.972545 0.837551 0.539904 
0.967082 0.843014 0.539904 0.966975 0.835618 0.547407 0.961177 0.848919 0.539904 
0.947691 0.862405 0.539904 0.946753 0.863343 0.539904 0.946727 0.862119 0.541154 
0.93089 0.879206 0.539904 0.926413 0.883683 0.539904 0.926265 0.877936 0.545799 
0.908872 0.901224 0.539904 0.906047 0.90405 0.539904 0.905931 0.900467 0.543602 
0.885621 0.924475 0.539904 0.879074 0.931022 0.539904 0.865091 0.945005 0.539904 
0.844404 0.965692 0.539904 0.839219 0.970877 0.539904 0.823489 0.986607 0.539904 
0.802266 1.00783 0.539904 0.789638 1.02046 0.539904 0.780642 1.02945 0.539904 
0.758513 1.05158 0.539904 0.735762 1.07433 0.539904 0.735186 1.07491 0.539904 
0.71226 1.09784 0.539904 0.687686 1.12241 0.539904 0.683201 1.12689 0.539904 
0.661972 1.14812 0.539904 0.63849 1.17161 0.539904 0.635204 1.17489 0.539904 
0.635191 1.17046 0.544349 0.607496 1.2026 0.539904 0.60137 1.20873 0.539904 
0.966326 0.835393 0.548281 0.954838 0.846881 0.548281 0.946589 0.85513 0.548281 
0.94123 0.860489 0.548281 0.926205 0.875514 0.548281 0.924317 0.877402 0.548281 
0.905792 0.895927 0.548281 0.90221 0.899509 0.548281 0.885322 0.916397 0.548281 
0.872368 0.929351 0.548281 0.864753 0.936966 0.548281 0.844031 0.957688 0.548281 
0.83254 0.969179 0.548281 0.823091 0.978628 0.548281 0.801853 0.999866 0.548281 
0.783057 1.01866 0.548281 0.780228 1.02149 0.548281 0.780046 1.01784 0.552118 
0.758116 1.0436 0.548281 0.735401 1.06632 0.548281 0.728757 1.07296 0.548281 
0.711959 1.08976 0.548281 0.687463 1.11426 0.548281 0.676908 1.12481 0.548281 
0.661841 1.13988 0.548281 0.63518 1.16654 0.548281 0.632272 1.16945 0.548281 
0.607593 1.19413 0.548281 0.595153 1.20657 0.548281 0.95897 0.83284 0.55819 
0.947339 0.844471 0.55819 0.946432 0.845378 0.55819 0.946415 0.844174 0.559411 
0.933589 0.858221 0.55819 0.925994 0.865816 0.55819 0.925821 0.855917 0.568262 
0.916542 0.875268 0.55819 0.905528 0.886282 0.55819 0.89433 0.89748 0.55819 
0.885006 0.906804 0.55819 0.864436 0.927374 0.55819 0.86439 0.92742 0.55819 
0.864388 0.927362 0.55825 0.843625 0.948185 0.55819 0.824638 0.967172 0.55819 
0.822653 0.969157 0.55819 0.822542 0.96664 0.560818 0.801395 0.990415 0.55819 
0.779767 1.01204 0.55819 0.775279 1.01653 0.55819 0.757669 1.03414 0.55819 
0.734993 1.05682 0.55819 0.721153 1.07066 0.55819 0.711618 1.08019 0.55819 
0.687209 1.1046 0.55819 0.669463 1.12235 0.55819 0.661693 1.13012 0.55819 
0.661541 1.11973 0.568732 0.635154 1.15666 0.55819 0.624917 1.16689 0.55819 
0.607705 1.18411 0.55819 0.587798 1.20401 0.55819 0.579761 1.20122 0.569019 
0.950243 0.82981 0.569947 0.946292 0.833761 0.569947 0.946246 0.828423 0.575331 
0.938442 0.841611 0.569947 0.925796 0.854257 0.569947 0.924522 0.855531 0.569947 
0.907318 0.872735 0.569947 0.905268 0.874785 0.569947 0.905216 0.872158 0.572626 
[...]
POINT_DATA 938
FIELD FieldData 5
pressure 1 938 float
0.178573 0.178573 0.178573 0.178573 0.178573 0.178573 0.178573 0.178573 0.178573 
0.178573 0.178573 0.178573 0.178573 0.178573 0.178573 0.178573 0.178573 0.178573 
0.178573 0.178573 0.178573 0.178573 0.178573 0.178573 0.178573 0.178573 0.178573 
0.178573 0.178573 0.178573 0.178573 0.178573 0.178573 0.178573 0.178573 0.178573 
0.178573 0.178573 0.178573 0.178573 0.178573 0.178573 0.178573 0.178573 0.178573 
0.178573 0.178573 0.178573 0.178573 0.178573 0.178573 0.178573 0.178573 0.178573 
0.178573 0.178573 0.178573 0.178573 0.178573 0.178573 0.178573 0.178573 0.178573 
0.178573 0.178573 0.178573 0.178573 0.178573 0.178573 0.178573 0.178573 0.178573 
0.178573 0.178573 0.178573 0.178573 0.178573 0.178573 0.178573 0.178573 0.178573 
0.178573 0.178573 0.178573 0.178573 0.178573 0.178573 0.178573 0.178573 0.178573 
0.178573 0.178573 0.178573 0.178573 0.178573 0.178573 0.178573 0.178573 0.178573 
0.178573 0.178573 0.178573 0.178573 0.178573 0.178573 0.178573 0.178573 0.178573 
0.178573 0.178573 0.178573 0.178573 0.178573 0.178573 0.178573 0.178573 0.178573 
0.178573 0.178573 0.178573 0.178573 0.178573 0.178573 0.178573 0.178573 0.178573 
0.178573 0.178573 0.178573 0.178573 0.178573 0.178573 0.178573 0.178573 0.178573 
0.178573 0.178573 0.178573 0.178573 0.178573 0.178573 0.178573 0.178573 0.178573 
0.178573 0.178573 0.178573 0.178573 0.178573 0.178573 0.178573 0.178573 0.178573 
0.178573 0.178573 0.178573 0.178573 0.178573 0.178573 0.178573 0.178573 0.178573 
0.178573 0.178573 0.178573 0.178573 0.178573 0.178573 0.178573 0.178573 0.178573 
0.178573 0.178573 0.178573 0.178573 0.178573 0.178573 0.178573 0.178573 0.178573 
0.178573 0.178573 0.178573 0.178573 0.178573 0.178573 0.178573 0.178573 0.178573 
0.178573 0.178573 0.178573 0.178573 0.178573 0.178573 0.178573 0.178573 0.178573 
0.178573 0.178573 0.178573 0.178573 0.178573 0.178573 0.178573 0.178573 0.178573 
0.178573 0.178573 0.178573 0.178573 0.178573 0.178573 0.178573 0.178573 0.178573 
0.178573 0.178573 0.178573 0.178573 0.178573 0.178573 0.178573 0.178573 0.178573 
0.178573 0.178573 0.178573 0.178573 0.178573 0.178573 0.178573 0.178573 0.178573 
0.178573 0.178573 0.178573 0.178573 0.178573 0.178573 0.178573 0.178573 0.178573 
0.178573 0.178573 0.178573 0.178573 0.178573 0.178573 0.178573 0.178573 0.178573 
0.178573 0.178573 0.178573 0.178573 0.178573 0.178573 0.178573 0.178573 0.178573 
0.178573 0.178573 0.178573 0.178573 0.178573 0.178573 0.178573 0.178573 0.178573 
0.178573 0.178573 0.178573 0.178573 0.178573 0.178573 0.178573 0.178573 0.178573 
0.178573 0.178573 0.178573 0.178573 0.178573 0.178573 0.178573 0.178573 0.178573 
0.178573 0.178573 0.178573 0.178573 0.178573 0.178573 0.178573 0.178573 0.178573 
0.178573 0.178573 0.178573 0.178573 0.178573 0.178573 0.178573 0.178573 0.178573 
0.178573 0.178573 0.178573 0.178573 0.178573 0.178573 0.178573 0.178573 0.178573 
0.178573 0.178573 0.178573 0.178573 0.178573 0.178573 0.178573 0.178573 0.178573 
0.178573 0.178573 0.178573 0.178573 0.178573 0.178573 0.178573 0.178573 0.178573 
0.178573 0.178573 0.178573 0.178573 0.178573 0.178573 0.178573 0.178573 0.178573 
0.178573 0.178573 0.178573 0.178573 0.178573 0.178573 0.178573 0.178573 0.178573 
0.178573 0.178573 0.178573 0.178573 0.178573 0.178573 0.178573 0.178573 0.178573 
0.178573 0.178573 0.178573 0.178573 0.178573 0.178573 0.178573 0.178573 0.178573 
0.178573 0.178573 0.178573 0.178573 0.178573 0.178573 0.178573 0.178573 0.178573 
0.178573 0.178573 0.178573 0.178573 0.178573 0.178573 0.178573 0.178573 0.178573 
0.178573 0.178573 0.178573 0.178573 0.178573 0.178573 0.178573 0.178573 0.178573 
0.178573 0.178573 0.178573 0.178573 0.178573 0.178573 0.178573 0.178573 0.178573 
0.178573 0.178573 0.178573 0.178573 0.178573 0.178573 0.178573 0.178573 0.178573 
0.178573 0.178573 0.178573 0.178573 0.178573 0.178573 0.178573 0.178573 0.178573 
0.178573 0.178573 0.178573 0.178573 0.178573 0.178573 0.178573 0.178573 0.178573 
0.178573 0.178573 0.178573 0.178573 0.178573 0.178573 0.178573 0.178573 0.178573 
0.178573 0.178573 0.178573 0.178573 0.178573 0.178573 0.178573 0.178573 0.178573 
0.178573 0.178573 0.178573 0.178573 0.178573 0.178573 0.178573 0.178573 0.178573 
0.178573 0.178573 0.178573 0.178573 0.178573 0.178573 0.178573 0.178573 0.178573 
0.178573 0.178573 0.178573 0.178573 0.178573 0.178573 0.178573 0.178573 0.178573 
0.178573 0.178573 0.178573 0.178573 0.178573 0.178573 0.178573 0.178573 0.178573 
0.178573 0.178573 0.178573 0.178573 0.178573 0.178573 0.178573 0.178573 0.178573 
0.178573 0.178573 0.178573 0.178573 0.178573 0.178573 0.178573 0.178573 0.178573 
0.178573 0.178573 0.178573 0.178573 0.178573 0.178573 0.178573 0.178573 0.178573 
0.178573 0.178573 0.178573 0.178573 0.178573 0.178573 0.178573 0.178573 0.178573 
0.178573 0.178573 0.178573 0.178573 0.178573 0.178573 0.178573 0.178573 0.178573 
0.178573 0.178573 0.178573 0.178573 0.178573 0.178573 0.178573 0.178573 0.178573 
0.178573 0.178573 0.178573 0.178573 0.178573 0.178573 0.178573 0.178573 0.178573 
0.178573 0.178573 0.178573 0.178573 0.178573 0.178573 0.178573 0.178573 0.178573 
0.178573 0.178573 0.178573 0.178573 0.178573 0.178573 0.178573 0.178573 0.178573 
0.178573 0.178573 0.178573 0.178573 0.178573 0.178573 0.178573 0.178573 0.178573 
0.178573 0.178573 0.178573 0.178573 0.178573 0.178573 0.178573 0.178573 0.178573 
0.178573 0.178573 0.178573 0.178573 0.178573 0.178573 0.178573 0.178573 0.178573 
0.178573 0.178573 0.178573 0.178573 0.178573 0.178573 0.178573 0.178573 0.178573 
0.178573 0.178573 0.178573 0.178573 0.178573 0.178573 0.178573 0.178573 0.178573 
0.178573 0.178573 0.178573 0.178573 0.178573 0.178573 0.178573 0.178573 0.178573 
0.178573 0.178573 0.178573 0.178573 0.178573 0.178573 0.178573 0.178573 0.178573 
0.178573 0.178573 0.178573 0.178573 0.178573 0.178573 0.178573 0.178573 0.178573 
0.178573 0.178573 0.178573 0.178573 0.178573 0.178573 0.178573 0.178573 0.178573 
0.178573 0.178573 0.178573 0.178573 0.178573 0.178573 0.178573 0.178573 0.178573 
0.178573 0.178573 0.178573 0.178573 0.178573 0.178573 0.178573 0.178573 0.178573 
0.178573 0.178573 0.178573 0.178573 0.178573 0.178573 0.178573 0.178573 0.178573 
0.178573 0.178573 0.178573 0.178573 0.178573 0.178573 0.178573 0.178573 0.178573 
0.178573 0.178573 0.178573 0.178573 0.178573 0.178573 0.178573 0.178573 0.178573 
0.178573 0.178573 0.178573 0.178573 0.178573 0.178573 0.178573 0.178573 0.178573 
0.178573 0.178573 0.178573 0.178573 0.178573 0.178573 0.178573 0.178573 0.178573 
0.178573 0.178573 0.178573 0.178573 0.178573 0.178573 0.178573 0.178573 0.178573 
0.178573 0.178573 0.178573 0.178573 0.178573 0.178573 0.178573 0.178573 0.178573 
0.178573 0.178573 0.178573 0.178573 0.178573 0.178573 0.178573 0.178573 0.178573 
0.178573 0.178573 0.178573 0.178573 0.178573 0.178573 0.178573 0.178573 0.178573 
0.178573 0.178573 0.178573 0.178573 0.178573 0.178573 0.178573 0.178573 0.178573 
0.178573 0.178573 0.178573 0.178573 0.178573 0.178573 0.178573 0.178573 0.178573 
0.178573 0.178573 0.178573 0.178573 0.178573 0.178573 0.178573 0.178573 0.178573 
0.178573 0.178573 0.178573 0.178573 0.178573 0.178573 0.178573 0.178573 0.178573 
0.178573 0.178573 0.178573 0.178573 0.178573 0.178573 0.178573 0.178573 0.178573 
0.178573 0.178573 0.178573 0.178573 0.178573 0.178573 0.178573 0.178573 0.178573 
0.178573 0.178573 0.178573 0.178573 0.178573 0.178573 0.178573 0.178573 0.178573 
0.178573 0.178573 0.178573 0.178573 0.178573 0.178573 0.178573 0.178573 0.178573 
0.178573 0.178573 0.178573 0.178573 0.178573 0.178573 0.178573 0.178573 0.178573 
0.178573 0.178573 0.178573 0.178573 0.178573 0.178573 0.178573 0.178573 0.178573 
0.178573 0.178573 0.178573 0.178573 0.178573 0.178573 0.178573 0.178573 0.178573 
0.178573 0.178573 0.178573 0.178573 0.178573 0.178573 0.178573 0.178573 0.178573 
0.178573 0.178573 0.178573 0.178573 0.178573 0.178573 0.178573 0.178573 0.178573 
0.178573 0.178573 0.178573 0.178573 0.178573 0.178573 0.178573 0.178573 0.178573 
0.178573 0.178573 0.178573 0.178573 0.178573 0.178573 0.178573 0.178573 0.178573 
0.178573 0.178573 0.178573 0.178573 0.178573 0.178573 0.178573 0.178573 0.178573 
0.178573 0.178573 0.178573 0.178573 0.178573 0.178573 0.178573 0.178573 0.178573 
0.178573 0.178573 0.178573 0.178573 0.178573 0.178573 0.178573 0.178573 0.178573 
0.178573 0.178573 0.178573 0.178573 0.178573 0.178573 0.178573 0.178573 0.178573 
0.178573 0.178573 0.178573 0.178573 0.178573 0.178573 0.178573 0.178573 0.178573 
0.178573 0.178573 0.178573 0.178573 0.178573 0.178573 0.178573 0.178573 0.178573 
0.178573 0.178573 
velocity_u 1 938 float
1 1 1 1 1 1 1 1 1 
1 1 1 1 1 1 1 1 1 
1 1 1 1 1 1 1 1 1 
1 1 1 1 1 1 1 1 1 
1 1 1 1 1 1 1 1 1 
1 1 1 1 1 1 1 1 1 
1 1 1 1 1 1 1 1 1 
1 1 1 1 1 1 1 1 1 
1 1 1 1 1 1 1 1 1 
1 1 1 1 1 1 1 1 1 
1 1 1 1 1 1 1 1 1 
1 1 1 1 1 1 1 1 1 
1 1 1 1 1 1 1 1 1 
1 1 1 1 1 1 1 1 1 
1 1 1 1 1 1 1 1 1 
1 1 1 1 1 1 1 1 1 
1 1 1 1 1 1 1 1 1 
1 1 1 1 1 1 1 1 1 
1 1 1 1 1 1 1 1 1 
1 1 1 1 1 1 1 1 1 
1 1 1 1 1 1 1 1 1 
1 1 1 1 1 1 1 1 1 
1 1 1 1 1 1 1 1 1 
1 1 1 1 1 1 1 1 1 
1 1 1 1 1 1 1 1 1 
1 1 1 1 1 1 1 1 1 
1 1 1 1 1 1 1 1 1 
1 1 1 1 1 1 1 1 1 
1 1 1 1 1 1 1 1 1 
1 1 1 1 1 1 1 1 1 
1 1 1 1 1 1 1 1 1 
1 1 1 1 1 1 1 1 1 
1 1 1 1 1 1 1 1 1 
1 1 1 1 1 1 1 1 1 
1 1 1 1 1 1 1 1 1 
1 1 1 1 1 1 1 1 1 
1 1 1 1 1 1 1 1 1 
1 1 1 1 1 1 1 1 1 
1 1 1 1 1 1 1 1 1 
1 1 1 1 1 1 1 1 1 
1 1 1 1 1 1 1 1 1 
1 1 1 1 1 1 1 1 1 
1 1 1 1 1 1 1 1 1 
1 1 1 1 1 1 1 1 1 
1 1 1 1 1 1 1 1 1 
1 1 1 1 1 1 1 1 1 
1 1 1 1 1 1 1 1 1 
1 1 1 1 1 1 1 1 1 
1 1 1 1 1 1 1 1 1 
1 1 1 1 1 1 1 1 1 
1 1 1 1 1 1 1 1 1 
1 1 1 1 1 1 1 1 1 
1 1 1 1 1 1 1 1 1 
1 1 1 1 1 1 1 1 1 
1 1 1 1 1 1 1 1 1 
1 1 1 1 1 1 1 1 1 
1 1 1 1 1 1 1 1 1 
1 1 1 1 1 1 1 1 1 
1 1 1 1 1 1 1 1 1 
1 1 1 1 1 1 1 1 1 
1 1 1 1 1 1 1 1 1 
1 1 1 1 1 1 1 1 1 
1 1 1 1 1 1 1 1 1 
1 1 1 1 1 1 1 1 1 
1 1 1 1 1 1 1 1 1 
1 1 1 1 1 1 1 1 1 
1 1 1 1 1 1 1 1 1 
1 1 1 1 1 1 1 1 1 
1 1 1 1 1 1 1 1 1 
1 1 1 1 1 1 1 1 1 
1 1 1 1 1 1 1 1 1 
1 1 1 1 1 1 1 1 1 
1 1 1 1 1 1 1 1 1 
1 1 1 1 1 1 1 1 1 
1 1 1 1 1 1 1 1 1 
1 1 1 1 1 1 1 1 1 
1 1 1 1 1 1 1 1 1 
1 1 1 1 1 1 1 1 1 
1 1 1 1 1 1 1 1 1 
1 1 1 1 1 1 1 1 1 
1 1 1 1 1 1 1 1 1 
1 1 1 1 1 1 1 1 1 
1 1 1 1 1 1 1 1 1 
1 1 1 1 1 1 1 1 1 
1 1 1 1 1 1 1 1 1 
1 1 1 1 1 1 1 1 1 
1 1 1 1 1 1 1 1 1 
1 1 1 1 1 1 1 1 1 
1 1 1 1 1 1 1 1 1 
1 1 1 1 1 1 1 1 1 
1 1 1 1 1 1 1 1 1 
1 1 1 1 1 1 1 1 1 
1 1 1 1 1 1 1 1 1 
1 1 1 1 1 1 1 1 1 
1 1 1 1 1 1 1 1 1 
1 1 1 1 1 1 1 1 1 
1 1 1 1 1 1 1 1 1 
1 1 1 1 1 1 1 1 1 
1 1 1 1 1 1 1 1 1 
1 1 1 1 1 1 1 1 1 
1 1 1 1 1 1 1 1 1 
1 1 1 1 1 1 1 1 1 
1 1 1 1 1 1 1 1 1 
1 1 1 1 1 1 1 1 1 
1 1 
velocity_v 1 938 float
5.94994e-07 -4.56852e-07 -3.04078e-07 -3.9382e-08 -3.0926e-09 7.36029e-08 2.7856e-08 2.32131e-08 1.06258e-08 
-2.16512e-08 -2.11066e-08 -2.46574e-08 -2.19695e-08 -1.8671e-08 -8.15576e-09 -7.39847e-09 -6.65279e-09 8.83463e-10 
3.33209e-09 2.24758e-09 1.29074e-09 -1.75396e-08 -1.75484e-08 -1.71101e-08 1.3293e-08 8.18133e-09 3.10887e-09 
-3.18018e-08 -3.47384e-08 6.55517e-07 -3.91697e-07 -3.4612e-07 -3.69093e-07 -6.64133e-08 -3.27722e-08 6.29385e-08 
2.90766e-08 1.51465e-08 4.24679e-09 -1.82088e-08 -1.88393e-08 -1.73619e-08 -2.48689e-08 -4.29165e-08 -4.16668e-08 
-3.54133e-08 -1.52913e-10 -1.06555e-08 -8.17301e-09 2.29671e-09 9.20962e-09 9.34837e-09 8.09517e-09 -7.52971e-09 
-1.84253e-08 -1.65231e-08 1.60805e-08 1.53764e-08 1.33297e-08 -2.17594e-08 -2.86384e-08 6.98327e-07 -2.38954e-07 
-3.30323e-07 -1.02769e-07 -7.59614e-08 3.55002e-08 2.29243e-08 2.69015e-08 1.24609e-08 -1.47363e-08 -1.65668e-08 
-3.07491e-08 -3.26016e-08 -3.22028e-08 -2.59116e-09 -2.51715e-09 3.92704e-10 6.89236e-09 1.13062e-08 1.43741e-08 
1.41654e-08 1.66574e-08 -6.79467e-09 -1.13916e-08 -9.5024e-09 1.38295e-08 1.23711e-08 1.18842e-08 1.18055e-08 
-1.89473e-08 -3.11043e-08 6.69285e-07 -2.66128e-08 -2.88494e-07 -1.34573e-07 -1.17022e-07 2.20774e-08 1.27045e-08 
3.86945e-08 3.37959e-08 -1.85877e-08 -2.41588e-08 -2.84444e-08 -3.45525e-08 -3.25378e-08 -4.19778e-09 2.59428e-09 
1.03053e-08 1.6868e-08 1.78953e-08 2.043e-08 2.04152e-08 4.8111e-09 -8.4556e-09 -3.91847e-09 1.85857e-08 
1.20028e-08 1.15194e-08 -9.08957e-09 -2.241e-08 6.37329e-07 2.08692e-07 -2.04142e-07 -1.53234e-07 -1.48858e-07 
-1.58862e-07 1.36994e-08 4.69566e-09 2.23589e-08 2.00473e-08 1.93035e-08 -1.87948e-08 -3.15954e-08 -3.73405e-08 
-2.90664e-08 -2.50134e-08 -4.39735e-09 5.96532e-09 1.38078e-08 1.79741e-08 1.60053e-08 1.61702e-08 1.66381e-08 
8.31346e-09 -1.78512e-09 -5.04698e-10 1.58186e-08 1.46878e-08 1.44663e-08 -7.31415e-09 -2.69938e-08 6.13448e-07 
4.51168e-07 5.66963e-07 -1.29804e-07 -1.16492e-07 -1.60253e-07 4.08623e-09 7.18834e-10 2.36221e-10 1.92301e-08 
1.92849e-08 -5.48388e-09 -2.95765e-08 -4.30344e-08 -3.05973e-08 -2.75346e-08 -1.44836e-08 7.11834e-09 1.67879e-08 
1.82129e-08 9.79362e-09 1.35506e-08 1.46953e-08 9.29899e-09 -3.70584e-09 1.64347e-10 1.52493e-08 1.75647e-08 
1.96496e-08 7.45731e-09 -1.73038e-08 4.99273e-07 -4.80305e-08 -4.27168e-08 -1.60886e-07 -2.01664e-08 -3.45991e-09 
1.90247e-08 3.26304e-08 1.05761e-09 -2.9281e-08 -3.77575e-08 -1.86582e-08 -2.14888e-08 -1.63255e-08 5.59631e-09 
1.08346e-08 1.08351e-08 1.0233e-08 1.2414e-08 7.98821e-09 1.00716e-08 7.19856e-09 2.74777e-09 3.31423e-09 
1.42544e-08 1.23532e-08 2.00846e-08 7.25657e-09 -3.75556e-08 3.52691e-07 4.1877e-08 3.1429e-08 1.30763e-07 
-1.69566e-07 -6.54883e-08 -1.85914e-08 2.63951e-09 2.51017e-08 -3.87623e-09 -2.22825e-08 -2.43044e-08 -3.40972e-08 
-3.04023e-08 -2.70652e-08 -2.14537e-08 6.78264e-09 7.51005e-09 7.59964e-09 5.03852e-09 7.34294e-09 1.25579e-08 
1.18225e-08 7.33749e-09 -2.35077e-10 4.66365e-09 1.74033e-08 2.83266e-08 1.98452e-08 -1.67139e-08 6.84616e-10 
2.06607e-07 1.23957e-07 1.3679e-07 -1.90682e-07 -1.36876e-07 -5.47071e-08 -3.83743e-08 7.78416e-09 1.15591e-10 
-3.71603e-08 -3.60392e-08 -1.8527e-08 -1.86684e-08 -1.84943e-08 -1.89941e-08 3.27646e-09 5.16879e-09 7.15157e-09 
3.32605e-09 1.15412e-09 6.97722e-09 6.76826e-09 1.46194e-08 1.28064e-08 -1.52866e-08 -1.48395e-08 -1.27185e-08 
9.60298e-09 2.24123e-08 2.00836e-08 4.73356e-09 4.32619e-09 1.05813e-08 1.28693e-09 -1.84904e-07 1.55006e-07 
-1.80433e-07 -1.73073e-07 -1.77246e-07 -8.45348e-08 -7.45905e-08 -8.75162e-08 2.3562e-08 2.35734e-08 2.07774e-08 
2.00931e-09 4.39947e-09 -1.71232e-08 -3.3452e-08 -2.51191e-08 5.44072e-09 4.74908e-09 1.19626e-09 2.75305e-09 
9.61239e-09 1.54593e-08 1.6437e-08 3.20715e-08 9.28796e-09 6.78651e-09 9.90059e-09 1.90449e-08 1.78595e-08 
1.78961e-08 5.8027e-09 -2.51174e-09 -1.98607e-07 1.84422e-07 -2.19405e-08 -1.24389e-07 -7.84883e-08 -8.36582e-08 
-1.099e-09 1.63275e-08 2.14843e-08 1.63038e-08 3.64224e-09 -3.22579e-08 -1.21997e-08 2.93526e-09 -6.74177e-09 
3.80954e-09 6.02703e-09 2.53784e-09 -3.11492e-09 1.43464e-08 2.54723e-08 3.87577e-08 1.08351e-08 6.59816e-09 
9.17506e-09 1.55121e-08 1.59989e-08 1.43219e-08 -3.60106e-10 -3.64276e-07 1.58454e-07 1.45068e-07 1.60562e-07 
-5.77886e-09 -4.54597e-08 3.46975e-08 -1.19099e-07 -7.14305e-08 -4.83989e-09 1.34099e-08 1.40832e-08 1.39591e-08 
1.40341e-08 -2.89337e-08 -3.07054e-08 -2.73936e-08 -2.47339e-08 3.81659e-09 -2.13746e-09 -5.18259e-10 1.4174e-08 
2.58246e-08 3.08482e-08 2.8541e-08 2.20638e-08 1.86505e-08 1.6613e-08 2.84096e-08 1.31256e-08 8.92094e-09 
3.80181e-09 -8.40848e-09 1.63424e-08 -4.07132e-07 -2.06665e-07 -3.76935e-07 1.02612e-07 3.28624e-08 3.9727e-08 
-8.97261e-08 -8.38704e-08 -8.34974e-08 2.23665e-09 2.87422e-09 2.68573e-09 -6.6913e-09 1.23729e-08 -9.18599e-09 
-1.54483e-08 -9.32077e-09 -2.05118e-09 3.49054e-09 2.40426e-08 3.64934e-08 3.96085e-08 3.31932e-08 4.31964e-08 
4.29461e-08 4.25227e-08 3.5205e-08 2.93801e-08 2.95852e-08 2.47574e-08 2.25245e-08 1.43459e-08 -1.09751e-09 
1.86609e-08 1.88717e-08 -2.34264e-07 -5.76911e-08 -5.69281e-08 -8.67899e-08 4.91344e-08 -3.936e-09 3.64446e-08 
-5.63334e-08 -2.35953e-08 1.77446e-08 -7.60161e-09 -7.64533e-09 -2.38098e-08 3.02428e-09 1.71221e-09 4.56182e-09 
-3.35455e-08 -2.99236e-08 -2.41928e-08 -2.49087e-08 -8.68917e-09 3.84067e-08 3.85249e-08 2.648e-08 3.24319e-08 
3.01283e-08 2.26871e-08 2.20796e-08 1.21488e-08 -3.34324e-09 -7.45899e-09 -7.51867e-09 7.74628e-09 1.31474e-08 
4.36496e-08 3.83236e-08 9.52499e-08 -1.44974e-07 -2.07196e-08 -1.44868e-07 2.37157e-08 2.14802e-08 2.21047e-08 
-2.12713e-08 -2.76566e-08 -8.7597e-10 1.69007e-08 6.74741e-09 1.91158e-08 -1.95109e-08 -2.34011e-08 -1.20468e-08 
-1.52087e-08 2.32844e-08 2.66377e-08 2.18067e-08 1.46776e-08 2.21125e-08 1.44218e-08 1.40143e-08 1.49747e-08 
2.26989e-08 1.44364e-08 1.27472e-08 8.73188e-09 1.80625e-08 2.18857e-08 3.29175e-08 8.02118e-09 3.37794e-08 
2.18318e-08 1.92056e-07 -3.32126e-08 1.01136e-07 -1.24699e-07 -6.30539e-08 3.50068e-08 -5.81497e-08 -6.80713e-08 
1.12381e-08 5.44333e-09 6.0204e-09 2.62413e-08 2.96636e-08 2.81759e-08 2.12652e-08 1.75032e-08 -1.04054e-08 
-1.04786e-08 -1.36835e-08 -1.68688e-08 -1.8924e-08 1.51007e-09 9.84377e-09 1.32174e-08 -3.82773e-09 1.75679e-08 
2.69307e-08 2.92049e-08 4.18569e-08 -1.42151e-09 -4.59421e-10 1.47577e-08 1.28951e-08 5.81884e-09 3.60239e-09 
-8.21938e-09 3.76617e-09 2.05195e-08 -1.6328e-08 3.13386e-08 -4.95448e-08 4.22911e-08 -5.62315e-08 9.47978e-09 
-3.6938e-08 -5.82358e-08 -1.84379e-08 -1.516e-08 -3.31639e-08 1.86772e-10 -1.04119e-09 -5.66931e-09 -1.13942e-08 
-8.10756e-09 -6.95121e-09 -2.39608e-08 -6.17598e-08 -6.15332e-08 -6.28525e-08 -4.37006e-08 -5.50559e-09 -3.86212e-09 
2.22673e-08 4.04602e-08 4.28628e-08 3.39378e-08 9.61784e-09 1.22219e-08 1.19786e-08 1.15915e-08 2.26294e-08 
2.14062e-08 2.04653e-08 2.1521e-08 2.1264e-08 -3.54321e-08 2.26724e-09 -2.33297e-08 -4.81706e-11 -5.90846e-08 
-7.93201e-08 -4.96485e-08 -5.61278e-08 -3.51554e-08 -5.0932e-08 -2.54515e-08 -3.1248e-08 -1.92438e-08 -2.43932e-08 
-2.58476e-08 -2.92571e-08 -3.14888e-08 -4.1358e-08 -2.25472e-08 -3.4801e-08 -3.2284e-08 -3.35814e-08 -2.63953e-08 
-6.08431e-08 -1.39103e-08 -1.30778e-08 -1.36616e-08 3.81658e-09 -1.4051e-08 8.22886e-09 8.65181e-09 1.77494e-08 
3.32148e-08 3.51374e-09 2.96914e-09 6.21261e-09 1.18431e-08 1.78878e-08 2.99749e-08 1.63902e-08 4.64452e-08 
4.05041e-08 -3.00167e-09 -4.1127e-08 -6.43729e-09 -8.54314e-08 -6.96414e-08 -5.39821e-08 -7.39846e-08 -5.13863e-08 
-8.40517e-09 -8.22939e-08 -9.3742e-09 -4.96102e-09 -2.76663e-08 1.28479e-08 -2.76885e-08 -2.74278e-08 -1.52556e-08 
3.51468e-09 -3.40959e-08 -5.24445e-08 -4.81928e-08 -6.32336e-08 -6.21886e-08 -3.34318e-08 -2.88629e-08 -1.44902e-08 
-1.37269e-08 -8.96911e-10 -1.1722e-08 3.18469e-08 3.23889e-08 2.66313e-08 2.76013e-08 4.66011e-08 4.15458e-08 
4.20388e-08 5.9242e-09 1.84786e-08 4.08679e-09 -5.40495e-10 1.02759e-08 2.43535e-08 2.7859e-08 9.18672e-09 
-7.2205e-08 -5.91269e-08 -3.88108e-08 -7.71563e-08 -6.32535e-08 -6.5466e-08 -9.43221e-08 -1.77089e-09 -4.06047e-08 
1.53198e-08 -6.2602e-08 7.40389e-09 -1.08005e-08 -1.82962e-09 1.59763e-09 -2.20946e-08 -6.3257e-10 -1.50191e-08 
1.18419e-08 -1.57985e-08 -1.216e-08 -3.5932e-08 -5.65455e-08 -2.63804e-08 -3.27548e-08 -3.23732e-08 -1.20796e-08 
-1.58414e-08 -1.21147e-08 -2.77857e-08 3.15704e-08 3.36119e-08 2.18504e-08 3.27888e-08 1.94265e-08 1.98616e-08 
3.07418e-08 1.5469e-08 1.96887e-08 1.79468e-08 1.26543e-08 9.27346e-09 1.05383e-09 9.15675e-09 3.19823e-08 
-2.2353e-08 -5.36646e-08 -3.41881e-08 -7.34991e-08 -5.83835e-08 -5.78786e-08 -5.13261e-08 -6.51823e-08 -2.32998e-08 
-4.07587e-10 -4.46711e-08 1.04629e-09 -3.47576e-08 1.10085e-08 -1.06901e-08 1.30159e-08 -2.89908e-08 5.89477e-10 
-2.92563e-08 -9.32738e-09 2.37428e-09 -1.07672e-08 -1.50942e-08 -9.88686e-09 -1.04117e-08 -1.69335e-08 -1.10375e-08 
-1.32747e-08 -7.21409e-09 -9.31113e-09 1.21997e-08 -6.24965e-09 1.17037e-08 -1.03784e-09 -4.94749e-09 3.2621e-09 
-3.9202e-10 4.03987e-09 2.56156e-09 -3.83839e-09 6.45879e-10 -3.02197e-08 4.10932e-10 2.82675e-08 2.04508e-10 
2.9219e-08 1.04437e-08 1.38243e-08 -6.33654e-08 -4.20561e-08 -6.16923e-08 -3.54549e-08 -4.30095e-08 -3.73387e-08 
-4.09565e-08 -3.51329e-08 -3.35547e-08 -2.84707e-08 -3.09862e-08 -3.37316e-08 -3.44014e-08 6.20726e-09 -6.60021e-08 