# vtk DataFile Version 5.1
vtk output
ASCII
DATASET POLYDATA
POINTS 800 float
1.44059 1 -0.09059 1.44059 1.003 -0.09359 1.44059 1.00865 -0.0992399 
1.44059 1.01913 -0.10972 1.44342 1.00093 -0.09435 1.44342 1.00392 -0.09734 
1.44342 1.00954 -0.10296 1.447 1.00211 -0.09911 1.447 1.00508 -0.10208 
1.447 1.01068 -0.10768 1.45152 1.00359 -0.10511 1.45152 1.00655 -0.10807 
1.4572 1.00546 -0.11266 1.44059 1.02191 -0.112505 1.4428 1.01979 -0.11259 
1.44059 1.03811 -0.1287 1.44342 1.01919 -0.112614 1.44342 1.01998 -0.1134 
1.44342 1.03889 -0.13231 1.447 1.01575 -0.112753 1.45097 1.01194 -0.112907 
1.447 1.02107 -0.11807 1.447 1.03989 -0.13689 1.45152 1.01141 -0.112928 
1.4553 1.00777 -0.113074 1.45152 1.01211 -0.11363 1.45152 1.02244 -0.12396 
1.45152 1.04115 -0.14267 1.4572 1.00595 -0.113148 1.45758 1.00558 -0.113163 
1.4572 1.00839 -0.11559 1.4572 1.01391 -0.12111 1.4572 1.02416 -0.13136 
1.46427 1.00778 -0.12205 1.46427 1.01069 -0.12496 1.46427 1.01616 -0.13043 
1.46427 1.02631 -0.14058 1.47301 1.01066 -0.13367 1.47301 1.01353 -0.13654 
1.47301 1.01893 -0.14194 1.4837 1.01417 -0.14787 1.44059 1.0576 -0.148191 
1.44059 1.07096 -0.16155 1.44342 1.05491 -0.148334 1.44342 1.07163 -0.16505 
1.447 1.05152 -0.148516 1.447 1.07248 -0.16948 1.45152 1.04722 -0.148745 
1.45647 1.04253 -0.148995 1.45152 1.07355 -0.17507 1.4572 1.04183 -0.149032 
1.4572 1.04273 -0.14993 1.4572 1.07489 -0.18209 1.46427 1.03512 -0.149391 
1.4713 1.02844 -0.149747 1.46427 1.0447 -0.15897 1.48344 1.01692 -0.150362 
1.47301 1.02682 -0.149833 1.47924 1.02091 -0.150149 1.47301 1.02896 -0.15197 
1.47301 1.04713 -0.17014 1.4837 1.01667 -0.150375 1.48566 1.01481 -0.150474 
1.4837 1.017 -0.1507 1.4837 1.02232 -0.15602 1.4837 1.0322 -0.1659 
1.4837 1.0501 -0.1838 1.49661 1.01842 -0.16503 1.49661 1.02119 -0.1678 
1.49661 1.02642 -0.17303 1.49661 1.03612 -0.18273 1.51196 1.02346 -0.18542 
1.44059 1.09183 -0.182417 1.44059 1.12363 -0.21422 1.44342 1.08917 -0.182592 
1.447 1.08581 -0.182813 1.45152 1.08157 -0.183093 1.4572 1.07624 -0.183443 
1.45835 1.07516 -0.183514 1.46427 1.06961 -0.183881 1.46427 1.07657 -0.19084 
1.47301 1.06141 -0.184421 1.47301 1.07864 -0.20165 1.4837 1.05138 -0.185082 
1.48475 1.05039 -0.185147 1.4837 1.08117 -0.21487 1.51092 1.02584 -0.186765 
1.50685 1.02967 -0.186513 1.49661 1.03927 -0.18588 1.49915 1.03689 -0.186037 
1.49661 1.05369 -0.2003 1.51196 1.02487 -0.186829 1.51307 1.02383 -0.186898 
1.51196 1.02618 -0.18814 1.51196 1.03129 -0.19325 1.51196 1.04077 -0.20273 
1.51196 1.05797 -0.21993 1.52988 1.02936 -0.20924 1.52988 1.032 -0.21188 
1.52988 1.03697 -0.21685 1.44059 1.12434 -0.214926 1.44123 1.12374 -0.214972 
1.44342 1.12171 -0.21513 1.44342 1.12413 -0.21755 1.447 1.11839 -0.215388 
1.447 1.12477 -0.22177 1.45152 1.11419 -0.215714 1.45152 1.12557 -0.22709 
1.4572 1.10892 -0.216123 1.4572 1.12657 -0.23377 1.46427 1.10236 -0.216633 
1.46427 1.12783 -0.2421 1.47301 1.09425 -0.217264 1.4837 1.08433 -0.218035 
1.48642 1.08181 -0.218231 1.49661 1.07236 -0.218966 1.49661 1.08423 -0.23084 
1.52605 1.04504 -0.221089 1.51196 1.05811 -0.220073 1.51208 1.058 -0.220082 
1.51196 1.08787 -0.24983 1.53953 1.03253 -0.222061 1.53745 1.03446 -0.221911 
1.52988 1.04148 -0.221365 1.53351 1.03812 -0.221626 1.52988 1.0462 -0.22608 
1.52988 1.06295 -0.24283 1.55036 1.03609 -0.23645 1.55036 1.03865 -0.23901 
1.55036 1.04347 -0.24383 1.55036 1.05242 -0.25278 1.44059 1.15493 -0.245523 
1.44342 1.15233 -0.245753 1.447 1.14904 -0.246045 1.45152 1.14489 -0.246413 
1.4572 1.13968 -0.246875 1.46427 1.13318 -0.247451 1.46915 1.1287 -0.247849 
1.47301 1.12515 -0.248164 1.47301 1.12938 -0.25239 1.4837 1.11533 -0.249034 
1.4837 1.13127 -0.26497 1.49661 1.10348 -0.250086 1.51196 1.08938 -0.251336 
1.51326 1.08818 -0.251442 1.52988 1.07292 -0.252796 1.53821 1.06527 -0.253474 
1.52988 1.09212 -0.272 1.5648 1.04084 -0.255641 1.56279 1.04269 -0.255477 
1.55896 1.0462 -0.255165 1.55036 1.0541 -0.254464 1.55174 1.05284 -0.254576 
1.55036 1.06865 -0.26901 1.5732 1.0436 -0.2668 1.5732 1.04607 -0.26927 
1.5732 1.05072 -0.27392 1.5732 1.05934 -0.28254 1.44059 1.18348 -0.274072 
1.44059 1.19852 -0.28911 1.44342 1.18091 -0.274326 1.44342 1.19884 -0.29226 
1.447 1.17765 -0.274648 1.447 1.19923 -0.29623 1.45152 1.17353 -0.275054 
1.45152 1.19973 -0.30125 1.4572 1.16836 -0.275564 1.46427 1.16193 -0.276199 
1.47301 1.15397 -0.276984 1.4837 1.14424 -0.277944 1.49563 1.13339 -0.279015 
1.49661 1.13249 -0.279103 1.49661 1.13356 -0.28017 1.51196 1.11852 -0.280482 
1.51196 1.13628 -0.29824 1.52988 1.10221 -0.282092 1.53868 1.0942 -0.282882 
1.55036 1.08357 -0.283931 1.56291 1.07215 -0.285058 1.55036 1.09697 -0.29733 
1.58868 1.04869 -0.287373 1.58673 1.05046 -0.287198 1.58303 1.05384 -0.286865 
1.5732 1.06278 -0.285982 1.57604 1.0602 -0.286237 1.5732 1.07501 -0.29821 
1.59799 1.05175 -0.29974 1.59799 1.05412 -0.30211 1.59799 1.05858 -0.30657 
1.59799 1.06686 -0.31485 1.44059 1.20991 -0.300497 1.44342 1.20735 -0.300772 
1.447 1.20412 -0.30112 1.45152 1.20004 -0.30156 1.45183 1.19976 -0.30159 
1.4572 1.19491 -0.302111 1.4572 1.20036 -0.30756 1.46427 1.18853 -0.302798 
1.46427 1.20115 -0.31542 1.47301 1.18064 -0.303648 1.47301 1.20212 -0.32513 
1.4837 1.17099 -0.304687 1.49661 1.15933 -0.305942 1.51196 1.14547 -0.307434 
1.52047 1.13779 -0.308261 1.52988 1.12929 -0.309175 1.52988 1.13946 -0.31934 
1.55036 1.11081 -0.311166 1.5625 1.09985 -0.312346 1.5732 1.09019 -0.313386 
1.58605 1.07859 -0.314635 1.5732 1.10238 -0.32558 1.61103 1.05604 -0.317062 
1.60914 1.05774 -0.316879 1.60555 1.06098 -0.31653 1.59799 1.06781 -0.315795 
1.59877 1.0671 -0.315871 1.59799 1.08191 -0.3299 1.62412 1.06034 -0.33446 
1.62412 1.06261 -0.33673 1.62412 1.06687 -0.34099 1.44059 1.23418 -0.324774 
1.44342 1.23165 -0.325067 1.447 1.22844 -0.325438 1.45152 1.22439 -0.325907 
1.4572 1.2193 -0.326495 1.46427 1.21296 -0.327228 1.47301 1.20512 -0.328133 
1.47599 1.20245 -0.328442 1.4837 1.19554 -0.329241 1.4837 1.2033 -0.337 
1.49661 1.18397 -0.330579 1.49661 1.20474 -0.35135 1.51196 1.17021 -0.332169 
1.52988 1.15415 -0.334026 1.54356 1.14188 -0.335443 1.55036 1.13579 -0.336148 
1.55036 1.14309 -0.34345 1.5732 1.11532 -0.338515 1.58461 1.10509 -0.339698 
1.61986 1.07349 -0.343351 1.59799 1.09309 -0.341084 1.60751 1.08456 -0.342071 
1.59799 1.10826 -0.35625 1.63174 1.06284 -0.344581 1.6299 1.06449 -0.344391 
1.62412 1.06967 -0.343792 1.62643 1.0676 -0.344031 1.62412 1.07478 -0.3489 
1.62412 1.08918 -0.3633 1.44059 1.25634 -0.346925 1.44342 1.25381 -0.347234 
1.447 1.25063 -0.347625 1.45152 1.2466 -0.348118 1.4572 1.24154 -0.348737 
1.46427 1.23524 -0.349509 1.47301 1.22745 -0.350463 1.4837 1.21793 -0.35163 
1.49661 1.20643 -0.353039 1.4983 1.20493 -0.353223 1.51196 1.19275 -0.354715 
1.51196 1.20644 -0.3684 1.52988 1.17679 -0.35667 1.55036 1.15855 -0.358906 
1.56483 1.14566 -0.360485 1.5732 1.1382 -0.361399 1.5732 1.14714 -0.37034 
1.59799 1.11611 -0.364105 1.60496 1.10991 -0.364865 1.65077 1.0691 -0.369865 
1.64898 1.07069 -0.36967 1.64562 1.07369 -0.369303 1.63924 1.07937 -0.368607 
1.62412 1.09284 -0.366957 1.62725 1.09005 -0.367298 1.65083 1.06912 -0.36995 
1.65083 1.07129 -0.37212 1.65083 1.07534 -0.37617 1.65083 1.08288 -0.38371 
1.44059 1.27642 -0.36701 1.44059 1.28865 -0.37924 1.44342 1.27391 -0.367332 
1.44342 1.28885 -0.38227 1.447 1.27074 -0.36774 1.45152 1.26673 -0.368254 
1.4572 1.2617 -0.3689 1.46427 1.25544 -0.369706 1.47301 1.24769 -0.370701 
1.4837 1.23822 -0.371918 1.49661 1.22678 -0.373387 1.51196 1.21318 -0.375135 
1.51871 1.20719 -0.375904 1.52988 1.19729 -0.377175 1.52988 1.20843 -0.38831 
1.55036 1.17915 -0.379506 1.5732 1.15891 -0.382107 1.58426 1.1491 -0.383366 
1.59799 1.13694 -0.384929 1.62353 1.11431 -0.387836 1.59799 1.15154 -0.39953 
1.62412 1.11378 -0.387904 1.64525 1.09506 -0.390309 1.62412 1.11445 -0.38857 
1.66811 1.0748 -0.392912 1.66638 1.07634 -0.392715 1.66311 1.07924 -0.392342 
1.65083 1.09011 -0.390944 1.65691 1.08473 -0.391637 1.65083 1.09661 -0.39744 
1.67726 1.07781 -0.40507 1.67726 1.07987 -0.40713 1.67726 1.08373 -0.41099 
1.44059 1.29453 -0.385118 1.44342 1.29203 -0.385451 1.44675 1.28909 -0.385844 
1.447 1.28887 -0.385873 1.447 1.28911 -0.38611 1.45152 1.28489 -0.386406 
1.45152 1.28943 -0.39095 1.4572 1.27987 -0.387075 1.4572 1.28983 -0.39703 
1.46427 1.27364 -0.387907 1.47301 1.26593 -0.388937 1.4837 1.2565 -0.390196 
1.49661 1.24511 -0.391717 1.51196 1.23156 -0.393525 1.52988 1.21576 -0.395636 
1.53726 1.20925 -0.396505 1.55036 1.19769 -0.398048 1.55036 1.2107 -0.41106 
1.5732 1.17754 -0.400739 1.59799 1.15567 -0.403659 1.60189 1.15223 -0.404118 
1.62412 1.13262 -0.406737 1.64036 1.11829 -0.408649 1.67291 1.08958 -0.412484 
1.65083 1.10905 -0.409882 1.66155 1.0996 -0.411145 1.65083 1.12077 -0.4216 
1.68381 1.07996 -0.413768 1.68212 1.08145 -0.413569 1.67726 1.08574 -0.412997 
1.67893 1.08426 -0.413194 1.67726 1.0909 -0.41816 1.44059 1.31077 -0.401362 
1.44342 1.30828 -0.401704 1.447 1.30514 -0.402138 1.45152 1.30117 -0.402685 
1.4572 1.29617 -0.403372 1.46387 1.29031 -0.404179 1.46427 1.28996 -0.404228 
1.46427 1.29034 -0.40461 1.47301 1.28228 -0.405287 1.47301 1.29096 -0.41397 
1.4837 1.27288 -0.406581 1.49661 1.26153 -0.408144 1.51196 1.24804 -0.410002 
1.52988 1.23229 -0.412172 1.55036 1.21429 -0.414651 1.55399 1.2111 -0.41509 
1.5732 1.19422 -0.417416 1.59799 1.17243 -0.420418 1.61777 1.15504 -0.422813 
1.62412 1.14946 -0.423582 1.62412 1.15617 -0.43029 1.67621 1.10368 -0.429888 
1.65083 1.12599 -0.426815 1.6555 1.12188 -0.427381 1.69792 1.0846 -0.432515 
1.69627 1.08604 -0.432316 1.69316 1.08878 -0.43194 1.67726 1.10275 -0.430015 
1.68729 1.09394 -0.431229 1.67726 1.10397 -0.43123 1.70263 1.08615 -0.43878 
1.70263 1.08811 -0.44074 1.70263 1.09178 -0.44441 1.44059 1.32527 -0.415865 
1.44342 1.32279 -0.416215 1.447 1.31966 -0.416658 1.45152 1.3157 -0.417218 
1.4572 1.31072 -0.41792 1.46427 1.30453 -0.418795 1.47301 1.29687 -0.419877 
1.47925 1.2914 -0.420649 1.4837 1.2875 -0.4212 1.4837 1.29172 -0.42542 
[...]
POINT_DATA 800
FIELD FieldData 5
pressure 1 800 float
0.43922 0.412105 0.368398 0.308511 0.436408 0.436413 0.394515 0.427576 0.427618 
0.420906 0.423965 0.424019 0.418618 0.291635 0.317804 0.193053 0.325955 0.320443 
0.196201 0.387879 0.432185 0.353579 0.202823 0.432522 0.420462 0.433783 0.407982 
0.220449 0.418629 0.418967 0.418767 0.428523 0.430931 0.425241 0.42534 0.430001 
0.438809 0.434851 0.434921 0.435698 0.447199 0.185033 0.179023 0.188193 0.179218 
0.194842 0.179555 0.213195 0.253873 0.180242 0.267118 0.258846 0.181958 0.381576 
0.440786 0.320378 0.446915 0.440093 0.442849 0.441243 0.389554 0.4472 0.448949 
0.44719 0.447668 0.451667 0.434593 0.457783 0.457596 0.457588 0.452493 0.451883 
0.178868 0.178578 0.179031 0.179337 0.180014 0.181879 0.182818 0.216926 0.187327 
0.306053 0.204261 0.426962 0.434842 0.25019 0.452178 0.451259 0.44952 0.451244 
0.436604 0.451873 0.451191 0.451871 0.448748 0.445891 0.440506 0.441563 0.441648 
0.440484 0.178578 0.178579 0.178618 0.178583 0.178727 0.17859 0.179006 0.178606 
0.179878 0.178656 0.183253 0.17878 0.197064 0.246073 0.2651 0.365314 0.3214 
0.441713 0.440351 0.440538 0.408579 0.440849 0.441086 0.440541 0.440405 0.440597 
0.444621 0.439594 0.439591 0.43938 0.440219 0.178576 0.178579 0.178585 0.178599 
0.178644 0.178768 0.179052 0.181544 0.17927 0.204021 0.180981 0.270483 0.402377 
0.41136 0.445028 0.444894 0.446188 0.444678 0.443966 0.44246 0.440817 0.440682 
0.445866 0.447403 0.447345 0.4473 0.4476 0.178573 0.178572 0.178574 0.178571 
0.178577 0.178571 0.178586 0.178571 0.178613 0.178695 0.179059 0.1806 0.187134 
0.190657 0.187646 0.282858 0.211004 0.407501 0.44887 0.449464 0.447547 0.452055 
0.452147 0.451493 0.450076 0.447883 0.448352 0.448808 0.454501 0.454343 0.453549 
0.45292 0.178572 0.178571 0.178571 0.178571 0.178571 0.178579 0.178571 0.178617 
0.178577 0.178804 0.178579 0.179744 0.184575 0.207051 0.237828 0.305662 0.267147 
0.423049 0.449818 0.448533 0.450341 0.44791 0.453705 0.453665 0.453025 0.452812 
0.452854 0.449866 0.449955 0.449389 0.447657 0.178572 0.178572 0.178572 0.178572 
0.178571 0.178576 0.178579 0.178592 0.178899 0.178626 0.181446 0.178747 0.19632 
0.248945 0.326658 0.370787 0.355718 0.438536 0.446515 0.446798 0.447094 0.446907 
0.441499 0.445594 0.446083 0.446764 0.44634 0.444881 0.438947 0.178572 0.178572 
0.178572 0.178572 0.178571 0.178575 0.178577 0.178616 0.178744 0.178828 0.185864 
0.17946 0.221071 0.317493 0.394731 0.423461 0.415884 0.436893 0.437846 0.434175 
0.434608 0.434822 0.43563 0.437263 0.437031 0.434136 0.433498 0.431709 0.428664 
0.178573 0.178573 0.178573 0.178573 0.178573 0.178572 0.178573 0.178574 0.178575 
0.178601 0.178697 0.179384 0.180465 0.195719 0.182077 0.267025 0.380072 0.415665 
0.423385 0.427907 0.414565 0.427904 0.426375 0.427601 0.421249 0.421923 0.422596 
0.42576 0.424168 0.422794 0.413388 0.412591 0.410489 0.178573 0.178573 0.178573 
0.178573 0.178573 0.178573 0.178573 0.178572 0.178572 0.178573 0.178573 0.178591 
0.178656 0.179173 0.181747 0.185625 0.221921 0.191396 0.322882 0.404968 0.413478 
0.418605 0.417757 0.410721 0.41673 0.414081 0.410171 0.407546 0.40826 0.409472 
0.409011 0.406772 0.178573 0.178573 0.178573 0.178573 0.178572 0.178572 0.178572 
0.178572 0.178571 0.17857 0.17858 0.178623 0.178993 0.180983 0.190713 0.196133 
0.272678 0.365032 0.407495 0.408809 0.404705 0.401476 0.407294 0.406447 0.394957 
0.395642 0.39647 0.401146 0.39811 0.400571 0.390818 0.390069 0.388272 0.178573 
0.178573 0.178573 0.178573 0.178572 0.178573 0.17857 0.178571 0.178573 0.178571 
0.178596 0.178845 0.180308 0.187829 0.213031 0.229025 0.216867 0.327451 0.392181 
0.399953 0.399025 0.395755 0.387202 0.393886 0.390779 0.389496 0.384919 0.385379 
0.386489 0.385882 0.385175 0.178573 0.178573 0.178573 0.178573 0.178572 0.178572 
0.178571 0.17857 0.178571 0.178576 0.17857 0.178721 0.179736 0.185401 0.210391 
0.231764 0.293416 0.370757 0.392709 0.39233 0.389121 0.38152 0.387877 0.386758 
0.377136 0.377519 0.378008 0.381018 0.37917 0.380247 0.374235 0.373618 0.372364 
0.178573 0.178573 0.178573 0.178573 0.178573 0.178573 0.178571 0.178571 0.178569 
0.178577 0.178628 0.178581 0.179281 0.183432 0.202606 0.24841 0.262785 0.252966 
0.350109 0.384464 0.38648 0.383325 0.379278 0.372833 0.37657 0.374885 0.371879 
0.371935 0.371992 0.371964 0.370338 0.178573 0.178573 0.178573 0.178573 0.178573 
0.178573 0.178572 0.178571 0.178571 0.17858 0.178589 0.178944 0.181903 0.196503 
0.243583 0.263406 0.33007 0.374613 0.381264 0.379404 0.373113 0.372777 0.369843 
0.37222 0.368261 0.368314 0.368472 0.368858 0.368619 0.366822 0.364891 0.178573 
0.178573 0.178573 0.178573 0.178573 0.178573 0.178573 0.178571 0.17857 0.178579 
0.178602 0.178698 0.178608 0.180747 0.191841 0.231504 0.276042 0.310742 0.364542 
0.376489 0.376053 0.374978 0.370216 0.368691 0.364733 0.365034 0.365207 0.366117 
0.365952 0.364697 0.364686 0.364184 0.3631 0.178573 0.178573 0.178573 0.178573 
0.178573 0.178573 0.178573 0.178573 0.178573 0.178572 0.178572 0.178576 0.178606 
0.178632 0.179893 0.188333 0.221707 0.285255 0.292171 0.287241 0.35457 0.371834 
0.372408 0.368129 0.365035 0.361828 0.363672 0.36275 0.361067 0.361127 0.361724 
0.361594 0.360453 0.178573 0.178573 0.178573 0.178573 0.178573 0.178573 0.178573 
0.178573 0.178573 0.178573 0.178572 0.178571 0.178576 0.178595 0.178665 0.179282 
0.185716 0.213853 0.276442 0.291328 0.344843 0.367351 0.369276 0.366504 0.361843 
0.361377 0.359433 0.36015 0.357209 0.357289 0.357932 0.358664 0.358192 0.178573 
0.178573 0.178573 0.178573 0.178573 0.178573 0.178573 0.178573 0.178574 0.178572 
0.178572 0.178573 0.178593 0.178681 0.178842 0.178689 0.183772 0.2076 0.263722 
0.296304 0.33552 0.363214 0.366761 0.365179 0.355994 0.359399 0.358822 0.353071 
0.35318 0.354064 0.355867 0.354308 0.355434 0.352398 0.351126 0.178573 0.178573 
0.178573 0.178573 0.178573 0.178573 0.178573 0.178574 0.178573 0.178572 0.178573 
0.178586 0.17868 0.178733 0.182327 0.202627 0.253281 0.300791 0.326873 0.359375 
0.36471 0.364126 0.363523 0.357701 0.35578 0.349824 0.350009 0.353075 0.352371 
0.348625 0.349704 0.348788 0.349423 0.178573 0.178573 0.178573 0.178573 0.178573 
0.178573 0.178573 0.178573 0.178574 0.178573 0.178573 0.178571 0.178585 0.178658 
0.178788 0.181247 0.198636 0.244692 0.304754 0.318906 0.355862 0.362919 0.362715 
0.356093 0.352845 0.345233 0.350458 0.348619 0.343436 0.343594 0.345195 0.345049 
0.343163 0.178573 0.178573 0.178573 0.178573 0.178573 0.178573 0.178573 0.178573 
0.178573 0.178573 0.178572 0.178581 0.178646 0.178822 0.180433 0.195411 0.237686 
0.308287 0.311695 0.309344 0.352581 0.36123 0.360471 0.354587 0.350029 0.348181 
0.344914 0.337156 0.337329 0.339544 0.341274 0.340314 0.178573 0.178573 0.178573 
0.178573 0.178573 0.178573 0.178573 0.178573 0.178573 0.178573 0.178573 0.178572 
0.17858 0.178633 0.178842 0.179815 0.19279 0.231839 0.303888 0.310041 0.349548 
0.35956 0.358305 0.353242 0.347545 0.346404 0.34128 0.327378 0.327577 0.331915 
0.338249 0.334798 0.318151 0.178573 0.178573 0.178573 0.178573 0.178573 0.178573 
0.178573 0.178573 0.178574 0.178573 0.178572 0.178578 0.178625 0.178852 0.179351 
0.190688 0.22699 0.296558 0.311077 0.346724 0.358024 0.356321 0.351992 0.345009 
0.344789 0.337806 0.31804 0.323232 0.336255 0.329645 0.317819 0.317808 
velocity_u 1 800 float
0.756834 0.782441 0.805948 0.861334 0.598692 0.761239 0.782383 0.601044 0.76057 
0.760413 0.600426 0.760939 0.595913 0.878937 0.853368 0.981303 0.845988 0.851103 
0.977512 0.790279 0.751998 0.821331 0.969325 0.752103 0.759087 0.750806 0.773043 
0.947902 0.622933 0.59551 0.758112 0.755665 0.756581 0.588335 0.748509 0.756622 
0.748667 0.578104 0.736372 0.753395 0.564185 0.991662 0.999405 0.987737 0.999145 
0.979437 0.998701 0.956942 0.908864 0.997778 0.896047 0.903074 0.995465 0.792833 
0.748986 0.839878 0.721074 0.749969 0.748102 0.749045 0.776933 0.70273 0.561998 
0.72071 0.744514 0.743372 0.740426 0.550239 0.705922 0.738994 0.740408 0.54222 
0.999609 0.999995 0.999394 0.998991 0.998082 0.995571 0.994313 0.955435 0.98828 
0.862765 0.966269 0.747525 0.739858 0.910994 0.697586 0.741139 0.739425 0.741005 
0.734838 0.622352 0.541731 0.69678 0.74178 0.74354 0.731928 0.534031 0.688751 
0.746152 0.999995 0.999994 0.999943 0.99999 0.999798 0.99998 0.999428 0.999959 
0.998257 0.999891 0.993748 0.999733 0.975743 0.9161 0.894997 0.797097 0.834988 
0.746503 0.732076 0.731928 0.760663 0.527991 0.683894 0.7467 0.745907 0.747174 
0.732003 0.521676 0.676241 0.745794 0.748898 0.999996 0.999993 0.999985 0.999967 
0.999906 0.999749 0.999366 0.996099 0.999071 0.968294 0.996821 0.893623 0.766851 
0.757792 0.728811 0.733014 0.722695 0.508727 0.664306 0.74324 0.747347 0.748668 
0.734279 0.50131 0.654474 0.739431 0.74498 0.999999 1 0.999997 1 
0.999993 1 0.999982 1 0.999946 0.999842 0.999353 0.997328 0.988804 
0.984723 0.988137 0.886535 0.958999 0.759397 0.722066 0.727289 0.734207 0.721282 
0.488345 0.642191 0.736168 0.742529 0.744488 0.734182 0.481113 0.632755 0.731343 
0.741399 1 1 1 1 1 0.99999 1 0.999943 
0.999997 0.999694 0.999992 0.998462 0.992158 0.964014 0.926891 0.855708 0.891825 
0.746671 0.723102 0.728811 0.733612 0.724577 0.474231 0.626557 0.730118 0.740875 
0.741435 0.734436 0.469224 0.620851 0.729132 1 1 1 1 
1 0.999997 0.999992 0.999978 0.999579 0.999941 0.996253 0.99978 0.977562 
0.914072 0.834233 0.792648 0.805823 0.731107 0.725651 0.745272 0.731817 0.736794 
0.729632 0.467731 0.619933 0.735231 0.729313 0.746436 0.74302 0.999999 1 
1 1 1 0.999998 0.999994 0.999952 0.999784 0.999679 0.990776 
0.998882 0.948159 0.846751 0.769064 0.743423 0.748677 0.732067 0.732302 0.463959 
0.616897 0.731438 0.751923 0.742589 0.744455 0.463943 0.61649 0.731954 0.756025 
0.999999 0.999999 1 1 1 1 1 0.999999 0.999996 
0.999967 0.999843 0.998979 0.997637 0.978987 0.995637 0.901845 0.784168 0.746463 
0.740182 0.739639 0.745573 0.73993 0.752022 0.739858 0.461329 0.614962 0.733726 
0.754987 0.758666 0.754387 0.460552 0.614793 0.736528 0.999999 1 1 
1 1 1 1 1 1 0.999999 0.999998 0.999979 
0.999893 0.999245 0.996048 0.991276 0.950743 0.98418 0.842356 0.75522 0.746315 
0.744294 0.74703 0.766793 0.75286 0.760141 0.752182 0.460053 0.6148 0.745661 
0.736805 0.769162 1 0.999999 1 0.999999 1 1 1 
1 1 1 0.999989 0.999936 0.999471 0.997001 0.985021 0.978467 
0.893757 0.796676 0.750932 0.749922 0.752787 0.768111 0.75361 0.754802 0.459167 
0.615048 0.73925 0.768743 0.774247 0.76869 0.458961 0.615273 0.741252 0.999999 
0.999999 1 0.999999 1 1 1 1 0.999998 1 
0.999969 0.999659 0.997844 0.988569 0.958147 0.940713 0.953536 0.83481 0.76614 
0.756736 0.758462 0.762519 0.781136 0.767394 0.775239 0.767108 0.457708 0.614658 
0.76476 0.741443 0.782365 1 1 1 1 1 1 
1 1 1 0.999994 1 0.999814 0.998558 0.991564 0.961391 
0.936963 0.870244 0.789298 0.763259 0.763677 0.766458 0.781389 0.768106 0.769206 
0.454585 0.612016 0.741098 0.782255 0.785553 0.782245 0.452781 0.609665 0.739738 
1 1 1 1 1 1 1 1 1 
0.999994 0.999932 0.999992 0.999126 0.993996 0.970889 0.918317 0.902586 0.913103 
0.811606 0.772095 0.768982 0.771554 0.774869 0.787934 0.781127 0.785462 0.449826 
0.607495 0.748465 0.739412 0.788807 1 1 1 1 1 
1 1 1 1 0.999993 0.999983 0.999545 0.99589 0.978297 
0.92387 0.902737 0.833143 0.784579 0.774645 0.775544 0.779363 0.780003 0.787534 
0.780014 0.44495 0.60244 0.736082 0.788874 0.789149 0.788687 0.441254 1 
1 1 1 1 1 0.999999 1 1 0.999993 
0.999968 0.999849 0.999961 0.997323 0.983945 0.937874 0.889967 0.853685 0.796893 
0.779804 0.779888 0.78153 0.782053 0.782707 0.598439 0.733744 0.790065 0.788312 
0.788904 0.488858 0.44103 0.597959 0.732807 1 1 1 1 
1 1 1 1 0.999999 0.999999 1 0.999997 0.999964 
0.999934 0.998382 0.988183 0.949293 0.880771 0.873548 0.878646 0.808717 0.786021 
0.784542 0.785377 0.786145 0.790839 0.788634 0.79047 0.438174 0.595578 0.765782 
0.731994 0.791086 1 1 1 1 1 1 1 
1 1 0.999999 0.999999 1 0.999997 0.999975 0.999897 0.999139 
0.991353 0.958574 0.89023 0.874985 0.819847 0.792188 0.788307 0.788601 0.789332 
0.789889 0.792169 0.791028 0.43636 0.593905 0.731469 0.791905 0.791364 1 
1 1 1 1 1 1 1 0.999999 0.999999 
1 1 0.999979 0.999878 0.999681 0.999871 0.993713 0.965807 0.90384 
0.870104 0.829463 0.797498 0.791009 0.79121 0.794056 0.792261 0.79229 0.436361 
0.594288 0.733191 0.793962 0.792079 0.794394 0.436728 0.595742 1 1 
1 1 1 1 1 0.999999 0.999999 0.999999 1 
0.999984 0.999882 0.999819 0.995463 0.971508 0.914851 0.865678 0.838739 0.802439 
0.793468 0.793566 0.795509 0.795084 0.795256 0.738256 0.793235 0.79612 0.796155 
0.438688 0.720638 0.597323 0.739109 1 1 1 1 1 
1 1 1 0.999999 0.999999 0.999999 1 0.999986 0.999906 
0.999755 0.996772 0.976108 0.924418 0.862499 0.847976 0.807999 0.796851 0.796707 
0.798324 0.798519 0.795145 0.798639 0.798433 0.443932 0.60358 0.782095 0.748012 
0.796124 1 1 1 1 1 1 1 1 
0.999999 0.999999 1 0.99999 0.999919 0.999715 0.997766 0.97998 0.932766 
0.860807 0.857349 0.860403 0.813941 0.801222 0.800691 0.802059 0.802254 0.802122 
0.801263 0.450168 0.610737 0.757724 0.798375 0.797405 1 1 1 
1 1 1 1 1 1 0.999999 0.999999 1 
0.999991 0.999934 0.999692 0.998521 0.983255 0.940054 0.867032 0.860788 0.818721 
0.804442 0.80359 0.805174 0.805841 0.805801 0.80489 0.458176 0.620375 0.76827 
0.803362 0.801196 0.469188 1 1 1 1 1 1 
1 1 0.999999 0.999999 1 0.999993 0.999943 0.999682 0.99909 
0.985863 0.94565 0.874775 0.859979 0.821778 0.80606 0.805067 0.807011 0.808948 
0.808977 0.808706 0.632839 0.777789 0.808247 0.805865 0.480416 0.469599 
velocity_v 1 800 float
0.233511 0.238487 0.232626 0.150215 0.205855 0.241426 0.246392 0.200651 0.247034 
0.261703 0.201579 0.245864 0.202778 0.131155 0.156015 0.0203288 0.164262 0.157677 
0.0243701 0.223514 0.258187 0.183933 0.03292 0.256217 0.243642 0.257703 0.216421 
0.0529883 0.209399 0.202496 0.242508 0.254085 0.241666 0.197512 0.241995 0.248762 
0.241976 0.192116 0.240086 0.246489 0.18625 0.00906519 0.000649574 0.0133009 0.000922088 
0.0220875 0.00138643 0.043823 0.0889091 0.00235186 0.101303 0.0942501 0.00472816 0.196603 
0.241819 0.148008 0.236279 0.242752 0.245702 0.241841 0.203831 0.230453 0.185567 
0.236186 0.245194 0.237171 0.230156 0.181801 0.231178 0.24472 0.245324 0.177658 
0.000426791 1.04274e-05 0.000655128 0.00108061 0.00203449 0.00461925 0.00587148 0.0419851 0.0118596 
0.126299 0.0324126 0.223943 0.231681 0.0819778 0.229903 0.248244 0.245938 0.246521 
0.247742 0.204659 0.177465 0.229741 0.24979 0.251882 0.250462 0.174577 0.2274 
0.250769 1.0348e-05 1.25355e-05 6.96163e-05 1.99368e-05 0.000229298 3.7535e-05 0.000626961 6.79548e-05 
0.00184199 0.000143106 0.00634725 0.000307369 0.0233135 0.0772704 0.0958572 0.185601 0.147912 
0.252069 0.250209 0.250443 0.200349 0.172699 0.225753 0.251515 0.250228 0.252253 
0.248686 0.170753 0.223139 0.248259 0.249272 6.61005e-06 1.36297e-05 2.7185e-05 5.28642e-05 
0.000121308 0.000288907 0.000691475 0.00383466 0.000999621 0.0294103 0.00337048 0.0958638 0.195379 
0.202645 0.2427 0.246222 0.231125 0.16666 0.219027 0.246807 0.248592 0.249083 
0.242395 0.164305 0.215653 0.244365 0.24565 8.57653e-07 -3.0294e-06 3.78541e-06 -3.40981e-06 
1.00961e-05 -5.09442e-06 2.51533e-05 -3.79748e-06 6.64113e-05 0.000179129 0.000698331 0.00283582 0.0115802 
0.0152811 0.0122624 0.0988176 0.0394545 0.203633 0.231048 0.236266 0.240565 0.23087 
0.160151 0.211559 0.243471 0.244213 0.245619 0.239198 0.157831 0.20842 0.242145 
0.245545 -2.77615e-06 -3.15386e-06 -4.82811e-06 -3.78295e-06 -3.81532e-06 8.99415e-06 -4.04607e-06 6.35318e-05 
3.06918e-06 0.000337197 1.92796e-05 0.00164262 0.00812289 0.0346659 0.069531 0.129886 0.10254 
0.212309 0.232221 0.236008 0.240128 0.233578 0.155544 0.206372 0.241873 0.245258 
0.245579 0.241186 0.153883 0.20447 0.241701 -2.01747e-06 -2.1633e-06 -3.38915e-06 -2.47997e-06 
-3.24151e-06 2.93563e-06 1.84832e-05 3.737e-05 0.000465516 8.36979e-05 0.00390624 0.00027538 0.0216746 
0.0818543 0.147078 0.17924 0.169869 0.229449 0.234818 0.247085 0.239119 0.242408 
0.235734 0.153395 0.204179 0.243767 0.241763 0.24745 0.244564 -1.11882e-06 -1.24204e-06 
-2.17936e-06 -1.53093e-06 -2.62809e-06 2.13946e-06 1.17225e-05 6.93516e-05 0.000269408 0.000391303 0.00906521 
0.00130564 0.0495571 0.136533 0.197123 0.216161 0.211132 0.235028 0.23672 0.152084 
0.203293 0.242519 0.249293 0.243945 0.245039 0.152078 0.203173 0.242749 0.250883 
-1.33324e-07 5.11596e-07 -2.20205e-07 5.88851e-07 -8.88306e-07 -5.99147e-07 -1.95945e-06 1.25819e-06 5.48873e-06 
4.84029e-05 0.000194753 0.00119451 0.00273279 0.0205847 0.00502647 0.0896376 0.18342 0.219049 
0.232111 0.239236 0.228616 0.239483 0.247892 0.239316 0.151142 0.202734 0.243321 
0.24981 0.251762 0.248757 0.150885 0.202678 0.244029 4.85331e-07 5.69737e-07 2.79431e-07 
2.40607e-07 2.57264e-07 2.49488e-07 4.53713e-07 -1.54419e-06 -1.10576e-06 4.45955e-07 -2.91915e-07 3.00269e-05 
0.000130074 0.000889319 0.00455702 0.00978428 0.0471933 0.0176229 0.138906 0.221108 0.22861 
0.235775 0.241577 0.254334 0.246072 0.250422 0.243103 0.150734 0.20266 0.247119 
0.24408 0.255011 4.17694e-07 4.52573e-07 2.94899e-07 3.5669e-07 -9.08873e-07 -5.72832e-07 -5.27181e-07 
-5.42455e-07 -4.32699e-06 -6.46e-06 1.35995e-05 7.72172e-05 0.000627357 0.00347299 0.0167192 0.0233689 
0.0977134 0.189023 0.228796 0.231337 0.228993 0.252309 0.242016 0.243458 0.150469 
0.202686 0.244597 0.252726 0.25611 0.252379 0.150415 0.20273 0.244922 3.54516e-07 
3.6627e-07 2.82661e-07 3.08952e-07 -6.36429e-07 -3.32668e-07 -5.92309e-06 -4.47262e-06 5.18081e-07 -3.49718e-06 
3.35377e-05 0.000410382 0.0025133 0.0128743 0.0442335 0.0599194 0.0490888 0.158949 0.218732 
0.229283 0.237251 0.242942 0.257301 0.246739 0.252449 0.242101 0.150037 0.202508 
0.252188 0.244872 0.257426 2.76856e-07 2.66968e-07 3.14978e-07 2.12618e-07 -1.94358e-07 -4.51289e-07 
-3.92155e-06 -4.01866e-06 -5.70512e-06 1.77454e-06 -6.58367e-06 0.000228954 0.00169475 0.00957709 0.0412245 
0.0661842 0.129401 0.200144 0.228365 0.230964 0.227385 0.251791 0.240143 0.241526 
0.149008 0.201646 0.244186 0.252688 0.257471 0.251744 0.14838 0.200927 0.243499 
2.16487e-07 2.07142e-07 2.87371e-07 1.85481e-07 1.25914e-09 -2.87297e-07 -2.91875e-06 -3.21405e-06 -6.60683e-06 
9.17055e-06 8.91509e-05 1.77762e-05 0.00104127 0.00686943 0.0316103 0.0858674 0.100944 0.0914265 
0.181353 0.222465 0.225824 0.234018 0.239658 0.257393 0.245869 0.25103 0.147382 
0.200237 0.245986 0.243363 0.257142 1.47161e-07 1.49669e-07 2.59316e-07 1.47006e-07 2.28366e-07 
-3.39523e-07 -1.48547e-06 -3.80116e-06 -3.50717e-06 1.41788e-05 3.09585e-05 0.000555615 0.00474492 0.0238639 
0.0806672 0.100375 0.162784 0.210974 0.222009 0.227049 0.237085 0.237933 0.24916 
0.236509 0.145792 0.198575 0.241907 0.253515 0.256746 0.247541 0.144654 7.42055e-08 
1.08212e-07 1.98923e-07 1.65796e-07 2.99596e-07 -1.44863e-07 -8.41525e-07 -3.03556e-06 -3.54404e-06 1.10645e-05 
5.90478e-05 0.000202912 7.1929e-05 0.00311838 0.0178293 0.0662184 0.11206 0.145227 0.199219 
0.218229 0.219497 0.216784 0.230492 0.233468 0.197191 0.240702 0.255988 0.245228 
0.246911 0.160569 0.14459 0.197015 0.240052 -1.50953e-08 -2.67873e-08 6.18094e-08 3.85479e-08 
1.21529e-07 1.81244e-07 3.24404e-07 -4.97744e-08 -9.78132e-08 -3.15763e-06 -1.47718e-06 3.54021e-06 6.72774e-05 
0.000108525 0.00190918 0.0132154 0.05454 0.120862 0.127507 0.123071 0.187904 0.211876 
0.213977 0.222879 0.229046 0.254763 0.236302 0.244066 0.143835 0.19608 0.248292 
0.239483 0.254092 -3.45234e-08 3.48819e-08 4.69637e-08 5.43534e-08 4.69584e-08 1.90358e-07 1.98186e-07 
2.84711e-07 1.4542e-07 1.1477e-07 -2.30706e-06 -1.84379e-06 2.02274e-06 5.1276e-05 0.000156581 0.00103691 
0.00973592 0.0447991 0.112387 0.126519 0.177134 0.204807 0.209301 0.215237 0.224105 
0.226672 0.240453 0.220836 0.143477 0.195294 0.238429 0.248244 0.252946 -3.57495e-08 
2.941e-08 2.41275e-08 1.97244e-07 1.92704e-07 1.90946e-07 1.44381e-07 3.21455e-07 3.09103e-07 -1.89845e-06 
-8.99304e-07 -2.18963e-06 4.50184e-05 0.000183432 0.000413131 0.000193275 0.00714362 0.0371994 0.0998287 
0.131248 0.168268 0.19918 0.205605 0.208577 0.235449 0.21745 0.218515 0.143811 