# vtk DataFile Version 5.1
vtk output
ASCII
DATASET STRUCTURED_GRID
DIMENSIONS 28 20 18
POINTS 10080 float
3.76637 0.65022 0.112505 3.76636 0.677157 0.112505 3.76635 0.704717 0.112505 
3.76634 0.732594 0.112505 3.76633 0.760471 0.112505 3.76632 0.78803 0.112505 
3.76631 0.814967 0.112505 3.7663 0.841005 0.112505 3.76629 0.865907 0.112505 
3.76629 0.889478 0.112505 3.76628 0.911575 0.112505 3.76627 0.932103 0.112505 
3.76627 0.951011 0.112505 3.76626 0.968295 0.112505 3.76626 0.983981 0.112505 
3.76625 0.998125 0.112505 3.76625 1.01081 0.112505 3.76624 1.02212 0.112505 
3.76624 1.03216 0.112505 3.76624 1.04103 0.112505 3.76623 1.04885 0.112505 
3.76623 1.05572 0.112505 3.76623 1.06173 0.112505 3.76623 1.06698 0.112505 
3.76623 1.07156 0.112505 3.76622 1.07554 0.112505 3.76622 1.079 0.112505 
3.76622 1.082 0.112505 3.80268 0.648824 0.112505 3.80267 0.675867 0.112505 
3.80266 0.703535 0.112505 3.80265 0.731524 0.112505 3.80264 0.759513 0.112505 
3.80263 0.787182 0.112505 3.80262 0.814225 0.112505 3.80261 0.840364 0.112505 
3.8026 0.865359 0.112505 3.80259 0.889016 0.112505 3.80259 0.91119 0.112505 
3.80258 0.931785 0.112505 3.80257 0.950754 0.112505 3.80257 0.968089 0.112505 
3.80256 0.983818 0.112505 3.80255 0.997999 0.112505 3.80255 1.01071 0.112505 
3.80254 1.02204 0.112505 3.80254 1.0321 0.112505 3.80254 1.041 0.112505 
3.80254 1.04883 0.112505 3.80253 1.0557 0.112505 3.80253 1.06172 0.112505 
3.80253 1.06698 0.112505 3.80253 1.07156 0.112505 3.80253 1.07554 0.112505 
3.80252 1.079 0.112505 3.80252 1.082 0.112505 3.83935 0.647413 0.112505 
3.83934 0.674563 0.112505 3.83933 0.702343 0.112505 3.83932 0.730445 0.112505 
3.83931 0.758547 0.112505 3.83929 0.786326 0.112505 3.83928 0.813476 0.112505 
3.83927 0.839716 0.112505 3.83926 0.864805 0.112505 3.83925 0.888549 0.112505 
3.83924 0.9108 0.112505 3.83924 0.931465 0.112505 3.83923 0.950494 0.112505 
3.83922 0.967881 0.112505 3.83922 0.983654 0.112505 3.83921 0.997872 0.112505 
3.8392 1.01061 0.112505 3.8392 1.02197 0.112505 3.8392 1.03205 0.112505 
3.83919 1.04096 0.112505 3.83919 1.0488 0.112505 3.83919 1.05568 0.112505 
3.83918 1.06171 0.112505 3.83918 1.06697 0.112505 3.83918 1.07155 0.112505 
3.83918 1.07554 0.112505 3.83918 1.079 0.112505 3.83917 1.082 0.112505 
3.87635 0.64599 0.112505 3.87634 0.673248 0.112505 3.87633 0.70114 0.112505 
3.87632 0.729355 0.112505 3.8763 0.757571 0.112505 3.87629 0.785463 0.112505 
3.87628 0.81272 0.112505 3.87627 0.839062 0.112505 3.87626 0.864247 0.112505 
3.87625 0.888077 0.112505 3.87624 0.910408 0.112505 3.87623 0.931142 0.112505 
3.87622 0.950232 0.112505 3.87621 0.967671 0.112505 3.87621 0.983489 0.112505 
3.8762 0.997744 0.112505 3.8762 1.01051 0.112505 3.87619 1.0219 0.112505 
3.87619 1.032 0.112505 3.87618 1.04092 0.112505 3.87618 1.04878 0.112505 
3.87618 1.05567 0.112505 3.87617 1.0617 0.112505 3.87617 1.06696 0.112505 
3.87617 1.07155 0.112505 3.87617 1.07554 0.112505 3.87617 1.079 0.112505 
3.87616 1.082 0.112505 3.91368 0.644555 0.112505 3.91366 0.671921 0.112505 
3.91365 0.699926 0.112505 3.91364 0.728256 0.112505 3.91362 0.756587 0.112505 
3.91361 0.784591 0.112505 3.9136 0.811958 0.112505 3.91359 0.838403 0.112505 
3.91358 0.863683 0.112505 3.91356 0.887602 0.112505 3.91355 0.910011 0.112505 
3.91355 0.930816 0.112505 3.91354 0.949967 0.112505 3.91353 0.967459 0.112505 
3.91352 0.983322 0.112505 3.91351 0.997614 0.112505 3.91351 1.01042 0.112505 
3.9135 1.02182 0.112505 3.9135 1.03194 0.112505 3.91349 1.04088 0.112505 
3.91349 1.04875 0.112505 3.91349 1.05565 0.112505 3.91349 1.06169 0.112505 
3.91348 1.06696 0.112505 3.91348 1.07155 0.112505 3.91348 1.07554 0.112505 
3.91348 1.079 0.112505 3.91348 1.082 0.112505 3.9513 0.643108 0.112505 
3.95129 0.670584 0.112505 3.95128 0.698702 0.112505 3.95126 0.727148 0.112505 
3.95125 0.755595 0.112505 3.95124 0.783713 0.112505 3.95122 0.811189 0.112505 
3.95121 0.837738 0.112505 3.9512 0.863116 0.112505 3.95119 0.887123 0.112505 
3.95118 0.909612 0.112505 3.95117 0.930488 0.112505 3.95116 0.9497 0.112505 
3.95115 0.967246 0.112505 3.95114 0.983153 0.112505 3.95113 0.997483 0.112505 
3.95113 1.01032 0.112505 3.95112 1.02175 0.112505 3.95112 1.03189 0.112505 
3.95111 1.04085 0.112505 3.95111 1.04872 0.112505 3.95111 1.05563 0.112505 
3.9511 1.06168 0.112505 3.9511 1.06695 0.112505 3.9511 1.07155 0.112505 
3.9511 1.07554 0.112505 3.9511 1.079 0.112505 3.9511 1.082 0.112505 
3.98922 0.64165 0.112505 3.98921 0.669237 0.112505 3.98919 0.697469 0.112505 
3.98918 0.726032 0.112505 3.98916 0.754595 0.112505 3.98915 0.782828 0.112505 
3.98914 0.810415 0.112505 3.98912 0.837069 0.112505 3.98911 0.862543 0.112505 
3.9891 0.88664 0.112505 3.98909 0.90921 0.112505 3.98908 0.930156 0.112505 
3.98907 0.949432 0.112505 3.98906 0.96703 0.112505 3.98905 0.982984 0.112505 
3.98904 0.997352 0.112505 3.98904 1.01022 0.112505 3.98903 1.02168 0.112505 
3.98903 1.03184 0.112505 3.98902 1.04081 0.112505 3.98902 1.0487 0.112505 
3.98902 1.05562 0.112505 3.98901 1.06167 0.112505 3.98901 1.06695 0.112505 
3.98901 1.07154 0.112505 3.98901 1.07554 0.112505 3.98901 1.079 0.112505 
3.989 1.082 0.112505 4.02741 0.640181 0.112505 4.02739 0.667879 0.112505 
4.02738 0.696227 0.112505 4.02736 0.724908 0.112505 4.02735 0.753589 0.112505 
4.02734 0.781937 0.112505 4.02732 0.809635 0.112505 4.02731 0.836394 0.112505 
4.0273 0.861967 0.112505 4.02728 0.886153 0.112505 4.02727 0.908804 0.112505 
4.02726 0.929823 0.112505 4.02725 0.949161 0.112505 4.02724 0.966814 0.112505 
4.02724 0.982813 0.112505 4.02723 0.997219 0.112505 4.02722 1.01012 0.112505 
4.02722 1.0216 0.112505 4.02721 1.03178 0.112505 4.02721 1.04077 0.112505 
4.0272 1.04867 0.112505 4.0272 1.0556 0.112505 4.0272 1.06166 0.112505 
4.02719 1.06694 0.112505 4.02719 1.07154 0.112505 4.02719 1.07553 0.112505 
4.02719 1.079 0.112505 4.02719 1.082 0.112505 4.06585 0.638703 0.112505 
4.06583 0.666513 0.112505 4.06582 0.694977 0.112505 4.0658 0.723776 0.112505 
4.06579 0.752575 0.112505 4.06578 0.78104 0.112505 4.06576 0.808849 0.112505 
4.06575 0.835715 0.112505 4.06573 0.861387 0.112505 4.06572 0.885664 0.112505 
4.06571 0.908396 0.112505 4.0657 0.929488 0.112505 4.06569 0.948889 0.112505 
4.06568 0.966596 0.112505 4.06567 0.982641 0.112505 4.06567 0.997086 0.112505 
4.06566 1.01001 0.112505 4.06565 1.02152 0.112505 4.06565 1.03173 0.112505 
4.06565 1.04073 0.112505 4.06564 1.04865 0.112505 4.06564 1.05558 0.112505 
4.06564 1.06165 0.112505 4.06563 1.06694 0.112505 4.06563 1.07154 0.112505 
4.06563 1.07553 0.112505 4.06563 1.079 0.112505 4.06562 1.082 0.112505 
4.10452 0.637216 0.112505 4.10451 0.665139 0.112505 4.1045 0.69372 0.112505 
4.10448 0.722638 0.112505 4.10447 0.751556 0.112505 4.10445 0.780137 0.112505 
4.10444 0.80806 0.112505 4.10442 0.835032 0.112505 4.10441 0.860803 0.112505 
4.1044 0.885171 0.112505 4.10439 0.907986 0.112505 4.10438 0.92915 0.112505 
4.10437 0.948615 0.112505 4.10436 0.966377 0.112505 4.10435 0.982468 0.112505 
4.10434 0.996952 0.112505 4.10434 1.00991 0.112505 4.10433 1.02145 0.112505 
4.10433 1.03167 0.112505 4.10432 1.04069 0.112505 4.10432 1.04862 0.112505 
4.10431 1.05557 0.112505 4.10431 1.06164 0.112505 4.10431 1.06693 0.112505 
4.10431 1.07154 0.112505 4.1043 1.07553 0.112505 4.1043 1.079 0.112505 
4.1043 1.082 0.112505 4.14342 0.63572 0.112505 4.1434 0.663757 0.112505 
4.14339 0.692455 0.112505 4.14338 0.721493 0.112505 4.14336 0.75053 0.112505 
4.14335 0.779229 0.112505 4.14333 0.807265 0.112505 4.14332 0.834345 0.112505 
4.14331 0.860217 0.112505 4.1433 0.884676 0.112505 4.14328 0.907573 0.112505 
4.14328 0.92881 0.112505 4.14326 0.948339 0.112505 4.14326 0.966156 0.112505 
4.14325 0.982294 0.112505 4.14324 0.996817 0.112505 4.14323 1.00981 0.112505 
4.14323 1.02137 0.112505 4.14322 1.03162 0.112505 4.14322 1.04065 0.112505 
4.14322 1.04859 0.112505 4.14321 1.05555 0.112505 4.14321 1.06163 0.112505 
4.14321 1.06693 0.112505 4.1432 1.07153 0.112505 4.1432 1.07553 0.112505 
4.1432 1.079 0.112505 4.1432 1.082 0.112505 4.18251 0.634218 0.112505 
4.1825 0.662368 0.112505 4.18248 0.691184 0.112505 4.18247 0.720342 0.112505 
4.18246 0.7495 0.112505 4.18244 0.778317 0.112505 4.18243 0.806467 0.112505 
4.18242 0.833655 0.112505 4.1824 0.859627 0.112505 4.18239 0.884179 0.112505 
4.18238 0.907159 0.112505 4.18237 0.928469 0.112505 4.18236 0.948062 0.112505 
4.18235 0.965934 0.112505 4.18235 0.98212 0.112505 4.18234 0.996682 0.112505 
4.18233 1.00971 0.112505 4.18233 1.02129 0.112505 4.18232 1.03156 0.112505 
4.18232 1.04061 0.112505 4.18231 1.04856 0.112505 4.18231 1.05553 0.112505 
4.18231 1.06162 0.112505 4.18231 1.06692 0.112505 4.1823 1.07153 0.112505 
4.1823 1.07553 0.112505 4.1823 1.079 0.112505 4.1823 1.082 0.112505 
4.22178 0.632708 0.112505 4.22177 0.660972 0.112505 4.22176 0.689907 0.112505 
4.22174 0.719186 0.112505 4.22173 0.748465 0.112505 4.22172 0.777401 0.112505 
4.2217 0.805665 0.112505 4.22169 0.832961 0.112505 4.22168 0.859034 0.112505 
4.22167 0.883678 0.112505 4.22166 0.906742 0.112505 4.22165 0.928127 0.112505 
4.22164 0.947784 0.112505 4.22163 0.965712 0.112505 4.22163 0.981944 0.112505 
4.22162 0.996545 0.112505 4.22161 1.0096 0.112505 4.22161 1.02122 0.112505 
4.2216 1.0315 0.112505 4.2216 1.04057 0.112505 4.2216 1.04854 0.112505 
4.22159 1.05551 0.112505 4.22159 1.06161 0.112505 4.22159 1.06691 0.112505 
4.22159 1.07153 0.112505 4.22158 1.07553 0.112505 4.22158 1.079 0.112505 
4.22158 1.082 0.112505 4.26121 0.631192 0.112505 4.2612 0.659571 0.112505 
4.26119 0.688626 0.112505 4.26118 0.718026 0.112505 4.26116 0.747426 0.112505 
4.26115 0.776481 0.112505 4.26114 0.80486 0.112505 4.26113 0.832265 0.112505 
4.26112 0.858439 0.112505 4.26111 0.883177 0.112505 4.2611 0.906324 0.112505 
4.26109 0.927782 0.112505 4.26108 0.947505 0.112505 4.26108 0.965488 0.112505 
4.26107 0.981768 0.112505 4.26106 0.996409 0.112505 4.26106 1.0095 0.112505 
4.26105 1.02114 0.112505 4.26105 1.03145 0.112505 4.26104 1.04053 0.112505 
4.26104 1.04851 0.112505 4.26104 1.0555 0.112505 4.26103 1.0616 0.112505 
[...]
POINT_DATA 10080
FIELD FieldData 5
pressure 1 10080 float
0.210432 0.209946 0.209424 0.210207 0.210078 0.21006 0.210881 0.214322 0.220855 
0.230805 0.241861 0.253225 0.264913 0.27742 0.285389 0.293185 0.29646 0.2989 
0.299951 0.300817 0.301517 0.301957 0.302575 0.302801 0.303297 0.303489 0.303946 
0.304414 0.205245 0.204311 0.203115 0.203759 0.204036 0.204477 0.206074 0.210208 
0.215941 0.222774 0.230895 0.239782 0.248734 0.259761 0.268134 0.276347 0.279738 
0.282643 0.283608 0.284409 0.284917 0.28539 0.285895 0.286332 0.286912 0.287235 
0.287725 0.288571 0.199842 0.199047 0.197807 0.198017 0.198597 0.200551 0.204414 
0.210396 0.217552 0.225647 0.234442 0.243008 0.251309 0.259767 0.266765 0.272425 
0.276232 0.27895 0.28024 0.280994 0.281297 0.281533 0.281666 0.281755 0.281857 
0.281923 0.282201 0.282768 0.194539 0.194223 0.193045 0.193088 0.194389 0.198281 
0.203807 0.210956 0.219597 0.229405 0.23861 0.246936 0.254581 0.260856 0.265689 
0.269465 0.27251 0.275029 0.277067 0.278593 0.279667 0.280189 0.280584 0.280536 
0.280793 0.280753 0.281091 0.281689 0.18965 0.18969 0.188774 0.189283 0.191781 
0.197196 0.204006 0.212372 0.222319 0.232919 0.242467 0.251451 0.25879 0.263174 
0.265851 0.267436 0.269272 0.271367 0.273606 0.275874 0.277831 0.279496 0.280818 
0.281816 0.282543 0.283023 0.283475 0.283879 0.184998 0.18532 0.18538 0.186963 
0.19075 0.197056 0.205134 0.214524 0.224877 0.235269 0.246023 0.255396 0.26143 
0.264317 0.265436 0.266522 0.267755 0.269569 0.271839 0.274005 0.276134 0.277841 
0.279329 0.280365 0.281127 0.281675 0.282022 0.28275 0.180692 0.181482 0.182796 
0.185994 0.190815 0.198105 0.206919 0.21693 0.226569 0.237096 0.247716 0.256163 
0.260836 0.263371 0.264773 0.266594 0.268396 0.270397 0.271899 0.272943 0.273884 
0.274548 0.275157 0.275509 0.275971 0.276154 0.276392 0.276882 0.176774 0.178355 
0.181026 0.185748 0.191984 0.199838 0.209133 0.218439 0.228355 0.237966 0.246858 
0.253178 0.257898 0.260178 0.264207 0.267754 0.269597 0.270883 0.270496 0.27028 
0.269611 0.26905 0.268577 0.268395 0.268168 0.268347 0.268316 0.268921 0.173489 
0.176028 0.179855 0.18595 0.193206 0.201837 0.210473 0.219927 0.229262 0.238312 
0.24433 0.249231 0.252789 0.258726 0.26447 0.266755 0.268396 0.267784 0.266945 
0.265499 0.264376 0.263243 0.26267 0.261987 0.262025 0.261718 0.261625 0.262022 
0.170565 0.174052 0.179369 0.18621 0.19451 0.202721 0.211517 0.220443 0.230007 
0.23703 0.241385 0.244662 0.250098 0.257274 0.261621 0.263761 0.263992 0.26336 
0.261748 0.26111 0.259796 0.259524 0.258623 0.258693 0.258241 0.258239 0.258147 
0.25823 0.168333 0.17278 0.178807 0.186953 0.194892 0.203348 0.211538 0.221162 
0.229029 0.234548 0.237615 0.242539 0.249749 0.254563 0.257383 0.258074 0.25805 
0.257124 0.257312 0.256721 0.257196 0.256752 0.257095 0.256832 0.256884 0.25685 
0.256545 0.256817 0.166385 0.171951 0.179123 0.186898 0.195135 0.202985 0.212321 
0.220599 0.226766 0.231026 0.236016 0.244223 0.249042 0.25123 0.25114 0.25118 
0.25152 0.252262 0.252519 0.253438 0.253735 0.254374 0.254463 0.254686 0.254745 
0.254606 0.254559 0.254495 0.165142 0.172375 0.179312 0.186844 0.194344 0.203548 
0.212114 0.219054 0.223963 0.229434 0.238441 0.245051 0.2474 0.246111 0.245007 
0.24487 0.245836 0.246902 0.24832 0.249123 0.250084 0.250529 0.250984 0.251153 
0.251172 0.251234 0.250968 0.251164 0.164409 0.172904 0.179554 0.186135 0.194602 
0.203299 0.21125 0.216989 0.222764 0.232062 0.24092 0.24379 0.242329 0.241079 
0.240082 0.240373 0.240905 0.242123 0.243009 0.244126 0.244701 0.245279 0.245506 
0.245645 0.245678 0.245626 0.245525 0.245549 0.164312 0.173254 0.179123 0.186289 
0.194529 0.20276 0.209422 0.215933 0.224969 0.235381 0.239876 0.238564 0.237253 
0.236539 0.236601 0.236651 0.237276 0.237661 0.23829 0.238587 0.239017 0.23919 
0.239335 0.239423 0.239336 0.239461 0.239213 0.239384 0.163696 0.172885 0.179036 
0.186275 0.194267 0.201415 0.208587 0.217411 0.22839 0.234678 0.233989 0.232457 
0.231793 0.232373 0.232966 0.233598 0.233584 0.233616 0.233253 0.233158 0.232888 
0.232785 0.232651 0.232512 0.232501 0.232344 0.232212 0.232346 0.16283 0.172834 
0.178991 0.186203 0.193048 0.200358 0.208872 0.220062 0.228976 0.229913 0.227893 
0.226595 0.227027 0.22798 0.229191 0.229636 0.2298 0.229202 0.228776 0.228018 
0.227573 0.22709 0.226787 0.226695 0.22644 0.22659 0.226252 0.226434 0.161514 
0.172572 0.179174 0.18581 0.192752 0.200515 0.211477 0.221754 0.224725 0.222556 
0.220608 0.220952 0.22196 0.223449 0.224175 0.224837 0.224828 0.224863 0.224383 
0.224045 0.223543 0.223247 0.222991 0.222719 0.222631 0.222366 0.222175 0.222228 
0.160444 0.172272 0.178601 0.185453 0.192528 0.202086 0.213308 0.219276 0.218657 
0.216174 0.215339 0.216115 0.217969 0.218989 0.21981 0.220235 0.220453 0.220281 
0.220124 0.219728 0.219455 0.219197 0.218862 0.218773 0.218489 0.218488 0.218189 
0.218335 0.159719 0.172039 0.178604 0.18601 0.19536 0.205608 0.211896 0.212808 
0.211201 0.210384 0.210487 0.211842 0.212924 0.213593 0.214195 0.214702 0.214717 
0.215035 0.215148 0.215434 0.215703 0.215863 0.216155 0.216088 0.216245 0.216121 
0.216036 0.216103 0.210552 0.209985 0.209778 0.210213 0.210055 0.209801 0.210933 
0.214709 0.221857 0.232058 0.243485 0.254189 0.266354 0.277083 0.287963 0.292876 
0.297413 0.299152 0.300451 0.301192 0.301797 0.302436 0.302749 0.303295 0.303495 
0.30377 0.30396 0.304698 0.205362 0.204462 0.203446 0.204015 0.20427 0.20472 
0.206309 0.210552 0.216886 0.224015 0.232089 0.240719 0.250519 0.259146 0.269824 
0.276149 0.281634 0.283474 0.28501 0.285676 0.286182 0.2866 0.286995 0.287409 
0.287817 0.288199 0.288665 0.289614 0.199952 0.199328 0.198257 0.198541 0.199264 
0.201092 0.205301 0.211188 0.218281 0.226547 0.235463 0.244349 0.252964 0.260835 
0.268108 0.27339 0.277669 0.280147 0.281663 0.282253 0.28256 0.282636 0.28275 
0.282718 0.282871 0.282908 0.28317 0.283888 0.194833 0.194637 0.193596 0.193766 
0.195349 0.199417 0.205116 0.212206 0.220437 0.230222 0.239608 0.248229 0.255606 
0.261964 0.266667 0.270156 0.27295 0.275216 0.277107 0.278519 0.279507 0.280187 
0.280564 0.280886 0.281006 0.281202 0.281485 0.281959 0.189972 0.190106 0.18932 
0.190027 0.192849 0.198619 0.205656 0.213781 0.223353 0.23361 0.24348 0.251806 
0.258955 0.263693 0.265744 0.267292 0.268583 0.270271 0.272303 0.274488 0.27639 
0.277975 0.279222 0.279998 0.280759 0.281077 0.281529 0.281976 0.185396 0.18569 
0.185843 0.18765 0.191658 0.198507 0.206665 0.216187 0.226164 0.23654 0.246653 
0.25596 0.262043 0.263978 0.265026 0.265248 0.266279 0.267727 0.269824 0.271914 
0.273794 0.275448 0.27675 0.277656 0.278397 0.278854 0.2792 0.279609 0.1809 
0.181618 0.183095 0.186497 0.191644 0.198946 0.208313 0.218316 0.228722 0.238774 
0.24929 0.257227 0.261376 0.262714 0.264233 0.264986 0.266694 0.268593 0.269818 
0.270793 0.271438 0.272109 0.272426 0.272894 0.273076 0.273436 0.2735 0.274322 
0.176897 0.178491 0.181229 0.186173 0.192117 0.200323 0.209613 0.220054 0.22996 
0.240423 0.249096 0.254918 0.257754 0.261051 0.263364 0.266481 0.26875 0.268485 
0.268589 0.267909 0.266989 0.266122 0.265623 0.265102 0.265271 0.264951 0.265041 
0.265485 0.173399 0.175939 0.180056 0.185958 0.193513 0.201728 0.211224 0.220422 
0.231394 0.240545 0.246171 0.250374 0.25448 0.258843 0.263079 0.26644 0.266293 
0.266067 0.264467 0.262906 0.261397 0.260436 0.259412 0.259149 0.258653 0.258779 
0.258648 0.25904 0.17057 0.174155 0.179274 0.186721 0.194658 0.203604 0.211906 
0.222051 0.231627 0.238135 0.242279 0.246308 0.251111 0.256893 0.261384 0.262636 
0.261862 0.26014 0.259128 0.257421 0.256803 0.255589 0.255416 0.254754 0.254813 
0.254607 0.254385 0.254739 0.168147 0.172653 0.179271 0.187232 0.196125 0.204203 
0.213715 0.222938 0.229839 0.234866 0.238767 0.243482 0.249144 0.254295 0.255807 
0.256041 0.255324 0.255089 0.254153 0.254497 0.253869 0.254325 0.253963 0.254145 
0.254053 0.253895 0.253875 0.253797 0.166365 0.172391 0.17937 0.187993 0.196041 
0.205576 0.21449 0.222185 0.227563 0.232055 0.236253 0.243039 0.248163 0.24905 
0.248979 0.248935 0.249554 0.249793 0.250722 0.251041 0.251848 0.252072 0.252432 
0.252622 0.252562 0.25268 0.252329 0.252596 0.165063 0.172806 0.180153 0.187612 
0.196547 0.205551 0.214293 0.220487 0.225497 0.229945 0.236957 0.243631 0.244032 
0.243399 0.242597 0.242775 0.243755 0.24527 0.246349 0.247624 0.248423 0.249051 
0.249494 0.249621 0.249784 0.249603 0.249519 0.24947 0.16472 0.173541 0.180238 
0.187897 0.196262 0.205309 0.212669 0.218641 0.223535 0.230868 0.238828 0.240345 
0.239414 0.238002 0.237783 0.238144 0.239179 0.240418 0.241879 0.242829 0.243634 
0.24419 0.244466 0.244714 0.244614 0.244733 0.244401 0.244653 0.16442 0.173843 
0.180455 0.187629 0.196275 0.203883 0.210775 0.216241 0.223905 0.233078 0.236742 
0.236089 0.234679 0.234477 0.23445 0.235047 0.235661 0.236271 0.236996 0.23769 
0.238219 0.238501 0.238755 0.238706 0.238782 0.238599 0.238477 0.238586 0.164007 
0.174117 0.180317 0.187831 0.195328 0.202568 0.208567 0.216469 0.22592 0.231827 
0.232003 0.230583 0.230348 0.23098 0.231923 0.232389 0.232723 0.232725 0.232746 
0.232656 0.23266 0.232714 0.232547 0.232609 0.23236 0.232527 0.232148 0.232459 
0.163187 0.173935 0.180582 0.187481 0.194451 0.200254 0.207794 0.217598 0.225715 
0.227938 0.226562 0.226026 0.226567 0.227995 0.228952 0.229556 0.229542 0.229251 
0.228656 0.228051 0.227455 0.226859 0.226592 0.226147 0.226103 0.225765 0.225616 
0.225727 0.162341 0.174056 0.180514 0.187162 0.192944 0.200172 0.209415 0.218731 
0.222772 0.221504 0.220264 0.220549 0.222501 0.223946 0.22515 0.225474 0.225587 
0.225187 0.224722 0.224143 0.223544 0.223173 0.22264 0.222537 0.222106 0.222211 
0.221767 0.222008 0.161144 0.17358 0.180153 0.185934 0.192115 0.200831 0.210728 
0.217834 0.217694 0.215981 0.215305 0.216724 0.218332 0.219676 0.220405 0.220866 
0.2208 0.220459 0.220022 0.219464 0.219114 0.218631 0.218485 0.218083 0.218049 
0.217747 0.217613 0.217799 0.160539 0.173184 0.179327 0.186172 0.19441 0.204568 
0.211125 0.212196 0.21069 0.209679 0.210307 0.211801 0.213089 0.21385 0.21446 
0.214748 0.215083 0.215445 0.215642 0.215954 0.216067 0.216393 0.216315 0.216535 
0.216379 0.216486 0.216403 0.21657 0.211001 0.210468 0.209863 0.210439 0.209938 
0.209821 0.211014 0.215234 0.222589 0.233245 0.244289 0.255415 0.266647 0.27891 
0.286713 0.294282 0.297338 0.299625 0.300593 0.301349 0.30197 0.302363 0.302882 
0.303077 0.303476 0.303605 0.303948 0.304387 0.205607 0.204885 0.20372 0.204462 
0.204497 0.204846 0.206667 0.211534 0.21821 0.225823 0.234288 0.243235 0.252142 
0.26292 0.271483 0.279534 0.283316 0.286505 0.287671 0.288556 0.289107 0.289561 
0.290054 0.29046 0.291018 0.291368 0.291941 0.29276 0.200294 0.199954 0.198888 
0.19925 0.199895 0.202064 0.206183 0.212553 0.220239 0.229093 0.238754 0.248318 
0.25699 0.265406 0.272186 0.277621 0.281304 0.28419 0.285634 0.286667 0.287039 
0.287391 0.287497 0.287649 0.287705 0.287831 0.288094 0.288655 0.195171 0.195277 
0.194286 0.194611 0.196352 0.200885 0.206608 0.213936 0.222798 0.232996 0.243237 
0.252209 0.260336 0.266364 0.27104 0.274294 0.277073 0.279089 0.280877 0.281993 
0.28295 0.283306 0.283798 0.283726 0.284076 0.283977 0.284332 0.284597 0.190336 
0.19069 0.189887 0.190966 0.19404 0.200304 0.207477 0.215938 0.225638 0.236599 
0.246294 0.255454 0.262403 0.266863 0.268906 0.270254 0.271021 0.272408 0.273734 
0.275486 0.276834 0.278308 0.279179 0.280081 0.280452 0.280879 0.281024 0.281301 
0.185613 0.186108 0.186396 0.18841 0.192959 0.200039 0.208797 0.218269 0.228666 
0.238557 0.249194 0.257657 0.263525 0.265231 0.265929 0.265965 0.266578 0.267227 
0.268913 0.270362 0.272141 0.273284 0.274478 0.275077 0.275629 0.275868 0.276046 
0.276498 0.181124 0.181986 0.183573 0.187288 0.192601 0.200699 0.210035 0.22087 
0.230561 0.240974 0.250124 0.257311 0.260457 0.262682 0.262903 0.264082 0.264916 
0.266569 0.267254 0.268087 0.268409 0.268716 0.268875 0.26891 0.269084 0.26907 
0.26915 0.269528 0.176922 0.17855 0.181602 0.186579 0.193298 0.201515 0.211881 
0.221759 0.23286 0.241936 0.249287 0.25366 0.257398 0.257948 0.26166 0.263936 
0.265731 0.266224 0.265654 0.265009 0.26401 0.263292 0.262561 0.262252 0.261894 
0.262079 0.262001 0.262704 0.17345 0.176098 0.179996 0.186615 0.194044 0.20342 
0.21256 0.223245 0.233052 0.241801 0.246511 0.250477 0.252538 0.257513 0.261809 
0.263419 0.264233 0.26326 0.262015 0.260294 0.259278 0.258036 0.257512 0.256722 
0.256797 0.256366 0.256239 0.256737 0.170294 0.173912 0.179643 0.186888 0.195968 
0.204303 0.214217 0.223437 0.233174 0.239374 0.24374 0.246312 0.251325 0.256836 
0.259655 0.260253 0.259603 0.258184 0.256358 0.255798 0.254478 0.254275 0.253377 
0.253487 0.252993 0.252922 0.25285 0.252863 0.167959 0.172979 0.179238 0.188398 
0.196645 0.206245 0.214841 0.224376 0.2313 0.236502 0.239728 0.244424 0.2503 
0.253516 0.254067 0.253687 0.253309 0.252418 0.25248 0.251714 0.252155 0.251644 
0.252016 0.251759 0.251736 0.251794 0.251452 0.251681 0.166094 0.172645 0.180432 
0.188586 0.19804 0.206619 0.216325 0.223566 0.229017 0.23268 0.237315 0.243663 
0.247211 0.247675 0.24693 0.247206 0.247296 0.248145 0.248358 0.249465 0.249622 
0.250326 0.2505 0.250658 0.250829 0.250589 0.25055 0.250404 0.165222 0.173741 
0.181094 0.189568 0.197856 0.208081 0.216222 0.222044 0.225984 0.230379 0.236796 
0.241281 0.24195 0.240971 0.241142 0.241763 0.242841 0.243895 0.245665 0.246566 
0.24756 0.248219 0.248579 0.248946 0.248843 0.248977 0.24861 0.248867 0.164829 
0.174458 0.181988 0.18943 0.199091 0.207745 0.214988 0.219594 0.224059 0.230069 
0.235163 0.2366 0.235576 0.235821 0.236216 0.237538 0.239012 0.240938 0.242232 
0.243474 0.244267 0.244758 0.245193 0.245172 0.245323 0.245097 0.24499 0.244946 
0.164891 0.175268 0.181957 0.190365 0.198824 0.206576 0.212265 0.217329 0.223101 
0.229533 0.231855 0.231346 0.231456 0.232004 0.233489 0.234562 0.236268 0.237404 
0.238488 0.239236 0.239771 0.240176 0.240211 0.240408 0.240196 0.240354 0.239956 
0.240084 0.164331 0.175392 0.18276 0.19033 0.197968 0.204089 0.209949 0.215663 
0.2232 0.227614 0.227524 0.227167 0.227614 0.229475 0.230879 0.232499 0.233245 
0.233838 0.234082 0.234235 0.234398 0.234296 0.234406 0.234116 0.234174 0.233856 
0.233688 0.233681 0.164005 0.176109 0.182816 0.189875 0.195769 0.201729 0.206912 
0.215196 0.222651 0.224333 0.224247 0.224358 0.22578 0.227224 0.228759 0.22952 
0.229903 0.229703 0.229461 0.229006 0.228455 0.228147 0.227605 0.227588 0.22712 
0.227395 0.226825 0.227052 0.163229 0.17605 0.18268 0.188409 0.194276 0.199274 
0.207408 0.216272 0.220293 0.219902 0.219734 0.221385 0.223106 0.224674 0.225343 
0.225706 0.225496 0.225184 0.224677 0.224143 0.223693 0.22311 0.22293 0.22239 
0.222393 0.221872 0.221714 0.221844 0.162667 0.175647 0.181259 0.187043 0.191914 
0.198912 0.208457 0.215571 0.216739 0.21615 0.216999 0.218487 0.220087 0.220787 
0.221086 0.220758 0.220338 0.219697 0.219142 0.218646 0.218102 0.217887 0.217372 
0.217372 0.216865 0.216944 0.216592 0.216763 0.161542 0.174375 0.180101 0.186007 
0.193625 0.203222 0.209469 0.210916 0.210598 0.21146 0.213064 0.214587 0.215265 
0.215507 0.215249 0.215206 0.215011 0.214816 0.214649 0.214391 0.214431 0.214154 
0.214283 0.213926 0.214009 0.21384 0.213793 0.214005 0.211205 0.210497 0.210189 
0.21045 0.210068 0.209778 0.211196 0.215515 0.223177 0.233607 0.245073 0.255438 
0.267218 0.277938 0.288711 0.293487 0.297934 0.299498 0.300668 0.301344 0.301923 
0.302463 0.302783 0.303229 0.303406 0.303592 0.303798 0.304456 0.205754 0.204925 
0.203924 0.20439 0.204363 0.204848 0.206995 0.211964 0.218819 0.226583 0.235057 
0.244031 0.253706 0.262344 0.273211 0.279637 0.285136 0.287025 0.28866 0.28934 
0.289828 0.29024 0.290635 0.291057 0.291489 0.291934 0.292501 0.293378 0.200391 
0.200172 0.199182 0.19944 0.20017 0.202262 0.206692 0.213238 0.221308 0.230613 
0.240484 0.2502 0.259353 0.267218 0.274337 0.279455 0.283739 0.286296 0.288209 
0.289057 0.289671 0.289862 0.290134 0.290116 0.290357 0.290388 0.290645 0.291284 
0.195376 0.195641 0.19469 0.195127 0.196955 0.201525 0.207438 0.215083 0.224103 
0.234915 0.245411 0.255209 0.263022 0.26963 0.273967 0.277532 0.280067 0.282536 
0.284161 0.285541 0.286314 0.287013 0.287178 0.28756 0.287467 0.287757 0.287826 
0.288171 0.190443 0.191012 0.190306 0.191589 0.194956 0.201212 0.208758 0.217195 
0.227381 0.238302 0.249259 0.258087 0.265741 0.269844 0.272286 0.27343 0.27452 
0.275321 0.276886 0.278168 0.27975 0.280739 0.281917 0.282317 0.283017 0.282893 
0.283294 0.28322 0.18576 0.186478 0.186844 0.18914 0.193694 0.201276 0.209796 
0.219866 0.229977 0.241014 0.250916 0.260414 0.265367 0.267825 0.268078 0.268245 
0.268149 0.269135 0.270054 0.271763 0.272813 0.274156 0.274737 0.27546 0.275624 
0.275918 0.275931 0.276085 0.181214 0.182171 0.183973 0.1877 0.193559 0.201288 
0.211539 0.221899 0.232786 0.242211 0.251969 0.25806 0.26223 0.262829 0.264651 
0.264112 0.265196 0.26607 0.266918 0.267125 0.267528 0.267531 0.267582 0.26748 
0.267383 0.267441 0.267404 0.267943 0.177117 0.178847 0.181762 0.187212 0.193525 
0.202851 0.21277 0.224121 0.233855 0.243628 0.250094 0.254615 0.256292 0.259668 
0.260403 0.26369 0.264869 0.26472 0.264172 0.263244 0.262239 0.261251 0.260581 
0.259888 0.25983 0.259471 0.259403 0.259871 0.173435 0.176032 0.180462 0.186578 
0.195145 0.204122 0.214759 0.224308 0.235331 0.242823 0.247179 0.24983 0.253242 
0.255876 0.260067 0.262461 0.262727 0.261858 0.260201 0.258847 0.257263 0.256388 
0.255303 0.254972 0.254364 0.254338 0.25415 0.254408 0.170456 0.174322 0.17942 
0.187868 0.19631 0.206264 0.215005 0.225806 0.234446 0.240465 0.243463 0.246848 
0.250496 0.255403 0.258442 0.259213 0.25825 0.256423 0.255554 0.253917 0.253471 
0.252297 0.25216 0.251411 0.251328 0.251121 0.250713 0.250996 0.16787 0.172852 
0.180091 0.188582 0.198346 0.206678 0.216908 0.225485 0.232491 0.237108 0.241132 
0.244986 0.249583 0.253022 0.253207 0.252363 0.251476 0.251209 0.250141 0.250446 
0.249655 0.25004 0.24959 0.249603 0.249532 0.249166 0.249092 0.248793 0.166199 
0.17335 0.180696 0.190072 0.198369 0.208653 0.217348 0.224743 0.229808 0.234379 
0.238381 0.244002 0.247057 0.246708 0.245912 0.245384 0.245844 0.245873 0.246785 
0.246997 0.247893 0.248126 0.248457 0.248735 0.248544 0.248725 0.24834 0.248498 
0.165142 0.174135 0.182184 0.18996 0.199835 0.208909 0.217655 0.222987 0.22749 
0.230949 0.236791 0.240987 0.240907 0.240273 0.239612 0.240435 0.241114 0.242788 
0.243869 0.245306 0.246177 0.246811 0.24739 0.24741 0.247656 0.247402 0.247281 
0.247194 0.165085 0.175241 0.182444 0.191247 0.200102 0.20939 0.216022 0.221068 
0.224304 0.229506 0.234027 0.234457 0.234184 0.234223 0.235575 0.236927 0.239122 
0.240743 0.242358 0.243492 0.244261 0.245027 0.245107 0.245453 0.245267 0.245375 
0.244986 0.245182 0.164834 0.175726 0.183506 0.191401 0.200755 0.207891 0.214 
0.217622 0.222506 0.227503 0.229099 0.22885 0.229303 0.231146 0.232869 0.235355 
0.237051 0.23859 0.239766 0.240502 0.241206 0.241195 0.24152 0.241194 0.241309 
0.240937 0.240791 0.240767 0.164775 0.176747 0.183856 0.192107 0.199399 0.20596 
0.210365 0.215439 0.22122 0.224822 0.224979 0.224442 0.225987 0.228217 0.231057 
0.232937 0.234398 0.23516 0.235637 0.236095 0.235988 0.236299 0.235946 0.236153 
0.235752 0.236005 0.235526 0.235601 0.164318 0.177145 0.184605 0.191265 0.197666 
0.202169 0.20738 0.21409 0.220252 0.222214 0.222164 0.223113 0.224432 0.226707 
0.228336 0.229694 0.230083 0.230245 0.230068 0.229573 0.229399 0.228782 0.228808 
0.22821 0.228349 0.227865 0.227691 0.227779 0.16425 0.177525 0.183824 0.189952 
0.194494 0.199749 0.20638 0.214581 0.218644 0.218712 0.219289 0.220938 0.223188 
0.224354 0.225004 0.225019 0.224897 0.224418 0.223853 0.223373 0.222706 0.222482 
0.221823 0.22189 0.221315 0.221448 0.220993 0.221206 0.163356 0.176687 0.182719 
0.187191 0.191958 0.198662 0.207376 0.214532 0.215776 0.21629 0.217377 0.219321 
0.220623 0.220964 0.220457 0.219842 0.219001 0.218073 0.217394 0.216634 0.216363 
0.215702 0.215697 0.215135 0.215141 0.214836 0.214728 0.214954 0.162339 0.175419 