# vtk DataFile Version 5.1
vtk output
ASCII
DATASET POLYDATA
POINTS 2091 float
1.41101 1.43899 -0.5 1.41567 1.43433 -0.5 1.42004 1.42997 -0.5 
1.4241 1.4259 -0.5 1.42789 1.42211 -0.5 1.43142 1.41858 -0.5 
1.43471 1.41529 -0.5 1.43776 1.41224 -0.5 1.44059 1.40941 -0.5 
1.37575 1.47425 -0.5 1.38255 1.46745 -0.5 1.38896 1.46104 -0.5 
1.39501 1.45499 -0.5 1.40068 1.44932 -0.5 1.41046 1.43954 -0.5 
1.40601 1.44399 -0.5 1.37334 1.47666 -0.5 1.411 1.436 -0.497 
1.41566 1.43134 -0.497 1.42003 1.42697 -0.497 1.42409 1.42291 -0.497 
1.42789 1.41911 -0.497 1.43142 1.41558 -0.497 1.43471 1.41229 -0.497 
1.43776 1.40924 -0.497 1.44059 1.40641 -0.497 1.3757 1.4713 -0.497 
1.38251 1.46449 -0.497 1.38893 1.45807 -0.497 1.39498 1.45202 -0.497 
1.40066 1.44634 -0.497 1.40823 1.43877 -0.497 1.406 1.441 -0.497 
1.40598 1.43799 -0.49397 1.37111 1.47589 -0.497 1.40598 1.43757 -0.493548 
1.41098 1.43257 -0.493548 1.41565 1.4279 -0.493548 1.42002 1.42353 -0.493548 
1.42409 1.41946 -0.493548 1.42789 1.41566 -0.493548 1.43142 1.41213 -0.493548 
1.4347 1.40884 -0.493548 1.43776 1.40579 -0.493548 1.44059 1.40296 -0.493548 
1.37564 1.46791 -0.493548 1.38246 1.46109 -0.493548 1.38889 1.45465 -0.493548 
1.39495 1.4486 -0.493548 1.40567 1.43788 -0.493548 1.40064 1.44291 -0.493548 
1.36855 1.475 -0.493548 1.36841 1.47495 -0.49336 1.40596 1.43362 -0.489579 
1.41097 1.42861 -0.489579 1.41564 1.42394 -0.489579 1.42001 1.41956 -0.489579 
1.42408 1.4155 -0.489579 1.42789 1.41169 -0.489579 1.43142 1.40816 -0.489579 
1.4347 1.40487 -0.489579 1.43776 1.40182 -0.489579 1.44059 1.39899 -0.489579 
1.36834 1.47124 -0.489579 1.37557 1.464 -0.489579 1.38241 1.45717 -0.489579 
1.38885 1.45073 -0.489579 1.39491 1.44466 -0.489579 1.40272 1.43686 -0.489579 
1.40061 1.43897 -0.489579 1.40059 1.43612 -0.48671 1.36561 1.47397 -0.489579 
1.40058 1.43444 -0.485022 1.40593 1.42909 -0.485022 1.41095 1.42408 -0.485022 
1.41563 1.41939 -0.485022 1.42001 1.41502 -0.485022 1.42408 1.41094 -0.485022 
1.42788 1.40714 -0.485022 1.43142 1.4036 -0.485022 1.4347 1.40032 -0.485022 
1.43776 1.39726 -0.485022 1.44059 1.39443 -0.485022 1.36825 1.46678 -0.485022 
1.3755 1.45952 -0.485022 1.38235 1.45268 -0.485022 1.3888 1.44622 -0.485022 
1.39934 1.43569 -0.485022 1.39487 1.44015 -0.485022 1.36223 1.4728 -0.485022 
1.36054 1.47221 -0.48275 1.40054 1.42925 -0.479796 1.40591 1.42389 -0.479796 
1.41093 1.41887 -0.479796 1.41561 1.41418 -0.479796 1.42 1.4098 -0.479796 
1.42407 1.40572 -0.479796 1.42788 1.40192 -0.479796 1.43142 1.39838 -0.479796 
1.4347 1.39509 -0.479796 1.43776 1.39204 -0.479796 1.44059 1.38921 -0.479796 
1.36047 1.46932 -0.479796 1.36814 1.46165 -0.479796 1.37541 1.45438 -0.479796 
1.38227 1.44752 -0.479796 1.38874 1.44105 -0.479796 1.39546 1.43434 -0.479796 
1.39483 1.43497 -0.479796 1.39482 1.43412 -0.47894 1.35835 1.47145 -0.479796 
1.39477 1.42904 -0.473812 1.4005 1.42331 -0.473812 1.40587 1.41794 -0.473812 
1.4109 1.41291 -0.473812 1.4156 1.40821 -0.473812 1.41998 1.40383 -0.473812 
1.42406 1.39975 -0.473812 1.42788 1.39594 -0.473812 1.43141 1.3924 -0.473812 
1.4347 1.38911 -0.473812 1.43776 1.38605 -0.473812 1.44059 1.38322 -0.473812 
1.44059 1.37767 -0.46826 1.36033 1.46348 -0.473812 1.36803 1.45579 -0.473812 
1.37532 1.4485 -0.473812 1.38219 1.44162 -0.473812 1.39102 1.4328 -0.473812 
1.38868 1.43514 -0.473812 1.38864 1.43197 -0.47061 1.3539 1.46991 -0.473812 
1.35214 1.4693 -0.47144 1.44059 1.37638 -0.466971 1.3886 1.42837 -0.466971 
1.39471 1.42226 -0.466971 1.40045 1.41652 -0.466971 1.40584 1.41113 -0.466971 
1.41087 1.4061 -0.466971 1.41558 1.40139 -0.466971 1.41997 1.397 -0.466971 
1.42406 1.39292 -0.466971 1.42787 1.3891 -0.466971 1.43141 1.38556 -0.466971 
1.4347 1.38227 -0.466971 1.4347 1.37572 -0.46042 1.43962 1.37735 -0.466971 
1.43776 1.37921 -0.466971 1.43776 1.37673 -0.46449 1.35202 1.46495 -0.466971 
1.36017 1.4568 -0.466971 1.36789 1.44908 -0.466971 1.3752 1.44177 -0.466971 
1.38594 1.43103 -0.466971 1.3821 1.43487 -0.466971 1.38203 1.42968 -0.46171 
1.34882 1.46815 -0.466971 1.34321 1.4662 -0.45941 1.4347 1.37447 -0.459165 
1.43776 1.37141 -0.459165 1.44059 1.36857 -0.459165 1.382 1.42717 -0.459165 
1.38851 1.42065 -0.459165 1.39465 1.41452 -0.459165 1.4004 1.40877 -0.459165 
1.4058 1.40337 -0.459165 1.41084 1.39832 -0.459165 1.41556 1.39361 -0.459165 
1.41996 1.38921 -0.459165 1.42405 1.38512 -0.459165 1.42787 1.3813 -0.459165 
1.42786 1.37346 -0.45132 1.43376 1.37541 -0.459165 1.43141 1.37775 -0.459165 
1.43141 1.37463 -0.45604 1.3432 1.46596 -0.459165 1.35181 1.45736 -0.459165 
1.35999 1.44917 -0.459165 1.36774 1.44143 -0.459165 1.38014 1.42902 -0.459165 
1.37507 1.43409 -0.459165 1.37496 1.42722 -0.45218 1.34303 1.46614 -0.459165 
1.42786 1.37242 -0.450279 1.43141 1.36887 -0.450279 1.4347 1.36558 -0.450279 
1.43776 1.36252 -0.450279 1.44059 1.35969 -0.450279 1.37493 1.42535 -0.450279 
1.38188 1.4184 -0.450279 1.38842 1.41186 -0.450279 1.39457 1.40571 -0.450279 
1.40034 1.39994 -0.450279 1.40575 1.39453 -0.450279 1.41081 1.38947 -0.450279 
1.41553 1.38475 -0.450279 1.41994 1.38034 -0.450279 1.41992 1.37083 -0.44075 
1.42708 1.3732 -0.450279 1.42403 1.37624 -0.450279 1.42403 1.37219 -0.44622 
1.34292 1.45736 -0.450279 1.35157 1.44871 -0.450279 1.35978 1.44049 -0.450279 
1.37355 1.42673 -0.450279 1.36756 1.43272 -0.450279 1.3674 1.4246 -0.442 
1.33643 1.46385 -0.450279 1.33371 1.4629 -0.44661 1.41992 1.37027 -0.440188 
1.42402 1.36617 -0.440188 1.42785 1.36234 -0.440188 1.4314 1.35878 -0.440188 
1.4347 1.35549 -0.440188 1.43776 1.35243 -0.440188 1.44059 1.3496 -0.440188 
1.36736 1.42282 -0.440188 1.37476 1.41543 -0.440188 1.38174 1.40845 -0.440188 
1.3883 1.40188 -0.440188 1.39448 1.39571 -0.440188 1.40027 1.38992 -0.440188 
1.4057 1.38449 -0.440188 1.41077 1.37942 -0.440188 1.4195 1.37069 -0.440188 
1.4155 1.37468 -0.440188 1.41549 1.36936 -0.43485 1.33348 1.45671 -0.440188 
1.34261 1.44758 -0.440188 1.35129 1.4389 -0.440188 1.36606 1.42413 -0.440188 
1.35955 1.43064 -0.440188 1.35934 1.4218 -0.43114 1.32894 1.46125 -0.440188 
1.32361 1.4594 -0.43301 1.41547 1.36329 -0.428762 1.4199 1.35887 -0.428762 
1.42401 1.35475 -0.428762 1.42784 1.35092 -0.428762 1.4314 1.34736 -0.428762 
1.4347 1.34407 -0.428762 1.43776 1.341 -0.428762 1.44059 1.33817 -0.428762 
1.35928 1.41948 -0.428762 1.36714 1.41162 -0.428762 1.37457 1.40419 -0.428762 
1.38159 1.39718 -0.428762 1.38818 1.39058 -0.428762 1.39438 1.38439 -0.428762 
1.40019 1.37857 -0.428762 1.40564 1.37312 -0.428762 1.4056 1.36609 -0.42169 
1.41092 1.36785 -0.428762 1.41072 1.36804 -0.428762 1.41072 1.36778 -0.4285 
1.32344 1.45533 -0.428762 1.33306 1.4457 -0.428762 1.34225 1.43651 -0.428762 
1.35757 1.42119 -0.428762 1.35098 1.42778 -0.428762 1.35073 1.41881 -0.41954 
1.32046 1.45831 -0.428762 1.31289 1.45568 -0.41857 1.40557 1.3603 -0.415865 
1.41067 1.35519 -0.415865 1.41543 1.35043 -0.415865 1.41987 1.346 -0.415865 
1.42399 1.34187 -0.415865 1.42783 1.33803 -0.415865 1.4314 1.33447 -0.415865 
1.4347 1.33117 -0.415865 1.43776 1.3281 -0.415865 1.44059 1.32527 -0.415865 
1.35063 1.41523 -0.415865 1.35899 1.40688 -0.415865 1.36689 1.39898 -0.415865 
1.37436 1.3915 -0.415865 1.38141 1.38445 -0.415865 1.38804 1.37783 -0.415865 
1.39426 1.3716 -0.415865 1.39418 1.36231 -0.40649 1.40123 1.36464 -0.415865 
1.4001 1.36576 -0.415865 1.40009 1.36426 -0.41435 1.31276 1.4531 -0.415865 
1.3229 1.44296 -0.415865 1.3326 1.43327 -0.415865 1.348 1.41786 -0.415865 
1.34184 1.42402 -0.415865 1.34157 1.41563 -0.4072 1.31088 1.45498 -0.415865 
1.30152 1.45173 -0.40325 1.39413 1.35723 -0.401362 1.4 1.35136 -0.401362 
1.40549 1.34587 -0.401362 1.41061 1.34075 -0.401362 1.41539 1.33597 -0.401362 
1.41984 1.33152 -0.401362 1.42397 1.32739 -0.401362 1.42782 1.32354 -0.401362 
1.43139 1.31997 -0.401362 1.43469 1.31667 -0.401362 1.43776 1.3136 -0.401362 
1.44059 1.31077 -0.401362 1.34139 1.40998 -0.401362 1.35024 1.40112 -0.401362 
1.35865 1.39271 -0.401362 1.3666 1.38476 -0.401362 1.37412 1.37724 -0.401362 
1.38122 1.37015 -0.401362 1.38105 1.35796 -0.38901 1.39033 1.36103 -0.401362 
1.38788 1.36349 -0.401362 1.38784 1.36021 -0.39805 1.30142 1.44994 -0.401362 
1.31209 1.43927 -0.401362 1.32231 1.42906 -0.401362 1.33724 1.41412 -0.401362 
1.33207 1.41929 -0.401362 1.33181 1.41224 -0.39405 1.30012 1.45124 -0.401362 
1.28948 1.44755 -0.38703 1.381 1.35412 -0.385118 1.3877 1.34742 -0.385118 
1.39399 1.34113 -0.385118 1.39989 1.33523 -0.385118 1.40541 1.32971 -0.385118 
1.41055 1.32457 -0.385118 1.41534 1.31977 -0.385118 1.41981 1.31531 -0.385118 
1.42395 1.31116 -0.385118 1.42781 1.30731 -0.385118 1.43139 1.30373 -0.385118 
1.43138 1.28586 -0.36724 1.43469 1.30043 -0.385118 1.43469 1.28686 -0.37155 
1.43776 1.29736 -0.385118 1.43776 1.28779 -0.37555 1.44059 1.29453 -0.385118 
1.44059 1.28865 -0.37924 1.33149 1.40363 -0.385118 1.34087 1.39424 -0.385118 
1.3498 1.38532 -0.385118 1.35827 1.37685 -0.385118 1.36629 1.36883 -0.385118 
1.36597 1.35296 -0.36893 1.37812 1.35699 -0.385118 1.37386 1.36126 -0.385118 
1.37376 1.35555 -0.37931 1.28937 1.44575 -0.385118 1.30058 1.43454 -0.385118 
1.31133 1.42378 -0.385118 1.32518 1.40994 -0.385118 1.32164 1.41348 -0.385118 
1.32143 1.40864 -0.38007 1.28806 1.44706 -0.385118 1.27674 1.44313 -0.36987 
1.43138 1.28563 -0.36701 1.43469 1.28232 -0.36701 1.43776 1.27925 -0.36701 
1.44059 1.27642 -0.36701 1.36593 1.35108 -0.36701 1.37356 1.34345 -0.36701 
1.38075 1.33626 -0.36701 1.3875 1.32951 -0.36701 1.39383 1.32318 -0.36701 
1.39976 1.31725 -0.36701 1.40531 1.3117 -0.36701 1.41048 1.30653 -0.36701 
1.41529 1.30172 -0.36701 1.41977 1.29724 -0.36701 1.41974 1.28233 -0.35207 
1.42393 1.29308 -0.36701 1.42392 1.2836 -0.35752 1.4312 1.28581 -0.36701 
1.42779 1.28922 -0.36701 1.42779 1.28477 -0.36256 1.32089 1.39612 -0.36701 
1.33083 1.38618 -0.36701 1.3403 1.37671 -0.36701 1.34931 1.3677 -0.36701 
1.36453 1.35248 -0.36701 1.35785 1.35916 -0.36701 1.35764 1.35021 -0.35785 
1.27656 1.44045 -0.36701 1.28832 1.42869 -0.36701 1.29963 1.41738 -0.36701 
[...]
POINT_DATA 2091
FIELD FieldData 5
pressure 1 2091 float
0.178573 0.178573 0.178573 0.178573 0.178573 0.178573 0.178573 0.178573 0.178573 
0.178573 0.178573 0.178573 0.178573 0.178573 0.178573 0.178573 0.178573 0.178573 
0.178573 0.178573 0.178573 0.178573 0.178573 0.178573 0.178573 0.178573 0.178573 
0.178573 0.178573 0.178573 0.178573 0.178573 0.178573 0.178573 0.178573 0.178573 
0.178573 0.178573 0.178573 0.178573 0.178573 0.178573 0.178573 0.178573 0.178573 
0.178573 0.178573 0.178573 0.178573 0.178573 0.178573 0.178573 0.178573 0.178573 
0.178573 0.178573 0.178573 0.178573 0.178573 0.178573 0.178573 0.178573 0.178573 
0.178573 0.178573 0.178573 0.178573 0.178573 0.178573 0.178573 0.178573 0.178573 
0.178573 0.178573 0.178573 0.178573 0.178573 0.178573 0.178573 0.178573 0.178573 
0.178573 0.178573 0.178573 0.178573 0.178573 0.178573 0.178573 0.178573 0.178573 
0.178573 0.178573 0.178573 0.178573 0.178573 0.178573 0.178573 0.178573 0.178573 
0.178573 0.178573 0.178573 0.178573 0.178573 0.178573 0.178573 0.178573 0.178573 
0.178573 0.178573 0.178573 0.178573 0.178573 0.178573 0.178573 0.178573 0.178573 
0.178573 0.178573 0.178573 0.178573 0.178573 0.178573 0.178573 0.178573 0.178573 
0.178573 0.178573 0.178573 0.178573 0.178573 0.178573 0.178573 0.178573 0.178573 
0.178573 0.178573 0.178573 0.178573 0.178573 0.178573 0.178573 0.178573 0.178573 
0.178573 0.178573 0.178573 0.178573 0.178573 0.178573 0.178573 0.178573 0.178573 
0.178573 0.178573 0.178573 0.178573 0.178573 0.178573 0.178573 0.178573 0.178573 
0.178573 0.178573 0.178573 0.178573 0.178573 0.178573 0.178573 0.178573 0.178573 
0.178573 0.178573 0.178573 0.178573 0.178573 0.178573 0.178573 0.178573 0.178573 
0.178573 0.178573 0.178573 0.178573 0.178573 0.178573 0.178573 0.178573 0.178573 
0.178573 0.178573 0.178573 0.178573 0.178573 0.178573 0.178573 0.178573 0.178573 
0.178573 0.178573 0.178573 0.178573 0.178573 0.178573 0.178573 0.178573 0.178573 
0.178573 0.178573 0.178573 0.178573 0.178573 0.178573 0.178573 0.178573 0.178573 
0.178573 0.178573 0.178573 0.178573 0.178573 0.178573 0.178573 0.178573 0.178573 
0.178573 0.178573 0.178573 0.178573 0.178573 0.178573 0.178573 0.178573 0.178573 
0.178573 0.178573 0.178573 0.178573 0.178573 0.178573 0.178573 0.178573 0.178573 
0.178573 0.178573 0.178573 0.178573 0.178573 0.178573 0.178573 0.178573 0.178573 
0.178573 0.178573 0.178573 0.178573 0.178573 0.178573 0.178573 0.178573 0.178573 
0.178573 0.178573 0.178573 0.178573 0.178573 0.178573 0.178573 0.178573 0.178573 
0.178573 0.178573 0.178573 0.178573 0.178573 0.178573 0.178573 0.178573 0.178573 
0.178573 0.178573 0.178573 0.178573 0.178573 0.178573 0.178573 0.178573 0.178573 
0.178573 0.178573 0.178573 0.178573 0.178573 0.178573 0.178573 0.178573 0.178573 
0.178573 0.178573 0.178573 0.178573 0.178573 0.178573 0.178573 0.178573 0.178573 
0.178573 0.178573 0.178573 0.178573 0.178573 0.178573 0.178573 0.178573 0.178573 
0.178573 0.178573 0.178573 0.178573 0.178573 0.178573 0.178573 0.178573 0.178573 
0.178573 0.178573 0.178573 0.178573 0.178573 0.178573 0.178573 0.178573 0.178573 
0.178573 0.178573 0.178573 0.178573 0.178573 0.178573 0.178573 0.178573 0.178573 
0.178573 0.178573 0.178573 0.178573 0.178573 0.178573 0.178573 0.178573 0.178573 
0.178573 0.178573 0.178573 0.178573 0.178573 0.178573 0.178573 0.178573 0.178573 
0.178573 0.178573 0.178573 0.178573 0.178573 0.178573 0.178573 0.178573 0.178573 
0.178573 0.178573 0.178573 0.178573 0.178573 0.178573 0.178573 0.178573 0.178573 
0.178573 0.178573 0.178573 0.178573 0.178573 0.178573 0.178573 0.178573 0.178573 
0.178573 0.178573 0.178573 0.178573 0.178573 0.178573 0.178573 0.178573 0.178573 
0.178573 0.178573 0.178572 0.178572 0.178573 0.178573 0.178573 0.178573 0.178573 
0.178573 0.178573 0.178573 0.178573 0.178573 0.178573 0.178573 0.178573 0.178573 
0.178573 0.178573 0.178573 0.178573 0.178573 0.178573 0.178573 0.178573 0.178573 
0.178573 0.178573 0.178573 0.178573 0.178573 0.178573 0.178573 0.178573 0.178573 
0.178573 0.178573 0.178573 0.178573 0.178573 0.178573 0.178573 0.178572 0.178573 
0.178572 0.178573 0.178573 0.178573 0.178573 0.178573 0.178573 0.178573 0.178573 
0.178573 0.178573 0.178573 0.178573 0.178573 0.178573 0.178573 0.178573 0.178573 
0.178573 0.178573 0.178573 0.178573 0.178573 0.178573 0.178573 0.178573 0.178573 
0.178573 0.178573 0.178573 0.178573 0.178573 0.178573 0.178573 0.178573 0.178573 
0.178573 0.178573 0.178572 0.178572 0.178572 0.178572 0.178571 0.178571 0.178573 
0.178573 0.178573 0.178573 0.178573 0.178573 0.178573 0.178573 0.178573 0.178573 
0.178573 0.178573 0.178573 0.178573 0.178573 0.178573 0.178573 0.178573 0.178573 
0.178573 0.178573 0.178573 0.178573 0.178573 0.178573 0.178573 0.178573 0.178573 
0.178572 0.178573 0.178574 0.178573 0.178573 0.178573 0.178573 0.178573 0.178573 
0.178573 0.178573 0.178573 0.178573 0.178573 0.178573 0.178573 0.178574 0.178574 
0.178573 0.178573 0.178573 0.178573 0.178573 0.178573 0.178573 0.178573 0.178573 
0.178573 0.178573 0.178573 0.178573 0.178573 0.178573 0.178573 0.178573 0.178573 
0.178573 0.178573 0.178573 0.178573 0.178573 0.178573 0.178573 0.178573 0.178573 
0.178573 0.178573 0.178573 0.178572 0.178573 0.178573 0.178575 0.178576 0.178573 
0.178573 0.178573 0.178573 0.178573 0.178573 0.178573 0.178573 0.178573 0.178573 
0.178573 0.178573 0.178573 0.178573 0.178573 0.178573 0.178573 0.178573 0.178573 
0.178573 0.178573 0.178573 0.178573 0.178573 0.178573 0.178573 0.178573 0.178573 
0.178573 0.178573 0.178573 0.178573 0.178573 0.178573 0.178573 0.178573 0.178573 
0.178573 0.178573 0.178573 0.178573 0.178573 0.178573 0.178573 0.178572 0.178572 
0.178572 0.178571 0.178571 0.178571 0.178572 0.178572 0.178574 0.178574 0.178576 
0.178576 0.178579 0.178579 0.178573 0.178573 0.178573 0.178573 0.178573 0.178573 
0.178573 0.178573 0.178573 0.178573 0.178573 0.178573 0.178573 0.178573 0.178573 
0.178573 0.178573 0.178573 0.178573 0.178573 0.178573 0.178573 0.178573 0.178573 
0.178573 0.178573 0.178573 0.178573 0.178573 0.178573 0.178573 0.178573 0.178573 
0.178573 0.178574 0.178585 0.178605 0.178647 0.178665 0.17875 0.178736 0.178846 
0.178906 0.179084 0.178573 0.178573 0.178573 0.178573 0.178573 0.178573 0.178574 
0.178574 0.178574 0.178574 0.178574 0.178574 0.178573 0.178573 0.178573 0.178573 
0.178573 0.178573 0.178573 0.178573 0.178573 0.178573 0.178573 0.178573 0.178573 
0.178573 0.178573 0.178573 0.178573 0.178573 0.178573 0.178573 0.178573 0.178573 
0.178573 0.178573 0.178573 0.178573 0.178573 0.178573 0.178573 0.178573 0.178573 
0.178573 0.178573 0.178819 0.181494 0.179825 0.184071 0.181618 0.187379 0.185828 
0.194683 0.178573 0.178574 0.178572 0.178571 0.178572 0.17857 0.178571 0.178569 
0.178576 0.178576 0.178583 0.178584 0.178633 0.178611 0.178613 0.178573 0.178573 
0.178573 0.178573 0.178573 0.178573 0.178573 0.178573 0.178573 0.178573 0.178573 
0.178573 0.178573 0.178573 0.178573 0.178573 0.178573 0.178573 0.178573 0.178573 
0.178573 0.178573 0.178573 0.178573 0.178573 0.178573 0.178573 0.178573 0.178573 
0.178573 0.178573 0.178573 0.178573 0.178573 0.178573 0.178573 0.178573 0.178573 
0.178573 0.376596 0.406783 0.428679 0.438904 0.353459 0.361967 0.376028 0.394895 
0.41067 0.278524 0.305978 0.323968 0.334443 0.350237 0.369339 0.181009 0.185143 
0.193592 0.20891 0.193204 0.229697 0.217402 0.255739 0.24829 0.27853 0.294951 
0.312065 0.178571 0.178572 0.178578 0.178592 0.178617 0.178655 0.178782 0.178864 
0.179195 0.179292 0.180202 0.180165 0.180169 0.178573 0.178573 0.178574 0.178574 
0.178574 0.178575 0.178575 0.178575 0.178572 0.178574 0.178574 0.178573 0.178573 
0.178573 0.178573 0.178573 0.178573 0.178573 0.178573 0.178573 0.178573 0.178573 
0.178573 0.178573 0.178573 0.178573 0.178573 0.178573 0.178573 0.178573 0.178573 
0.178573 0.178573 0.178573 0.178573 0.178573 0.178573 0.178573 0.178573 0.178573 
0.178573 0.178573 0.178573 0.178573 0.178573 0.178573 0.178573 0.178573 0.178573 
0.265501 0.293771 0.307249 0.314023 0.329107 0.363675 0.352632 0.349622 0.204214 
0.241009 0.290583 0.325241 0.352564 0.295346 0.34665 0.180017 0.18246 0.189663 
0.182976 0.208896 0.269109 0.221431 0.243298 0.178583 0.178646 0.17867 0.178845 
0.18082 0.179186 0.179422 0.178574 0.178574 0.178572 0.17857 0.178568 0.178565 
0.178566 0.178565 0.178565 0.178573 0.178573 0.178573 0.178573 0.178573 0.178573 
0.178574 0.178574 0.178574 0.178573 0.178573 0.178573 0.178573 0.178573 0.178573 
0.178573 0.178573 0.178573 0.178573 0.178573 0.178573 0.178573 0.178573 0.178573 
0.178573 0.178573 0.178573 0.178573 0.178573 0.178573 0.178573 0.178573 0.178573 
0.178573 0.178573 0.178573 0.178573 0.178573 0.178573 0.178573 0.178573 0.178573 
0.181319 0.1854 0.197354 0.252577 0.225905 0.179237 0.180112 0.18223 0.190711 
0.186297 0.187934 0.178562 0.178621 0.178759 0.179441 0.178965 0.179108 0.178569 
0.17856 0.178565 0.178555 0.178561 0.17856 0.17856 0.178575 0.178574 0.178576 
0.178576 0.178577 0.178576 0.178576 0.178576 0.178573 0.178573 0.178573 0.178573 
0.178573 0.178573 0.178573 0.178573 0.178573 0.178573 0.178573 0.178573 0.178573 
0.178573 0.178573 0.178573 0.178573 0.178573 0.178573 0.178573 0.178573 0.178573 
0.178573 0.178573 0.178573 0.178573 0.178573 0.178573 0.178573 0.178573 0.178573 
0.178573 0.178573 0.178573 0.178573 0.178573 0.178573 0.178573 0.178573 0.178573 
0.178833 0.17916 0.180862 0.179804 0.178571 0.178653 0.178944 0.17873 0.178839 
0.178559 0.178545 0.178555 0.178558 0.178543 0.178577 0.178575 0.178577 0.178572 
0.178575 0.178575 0.178573 0.178573 0.178575 0.178574 0.178574 0.178573 0.178573 
0.178573 0.178573 0.178573 0.178573 0.178573 0.178573 0.178573 0.178573 0.178573 
0.178573 0.178573 0.178573 0.178573 0.178573 0.178573 0.178573 0.178573 0.178573 
0.178573 0.178573 0.178573 0.178573 0.178573 0.178573 0.178573 0.178573 0.178573 
0.178573 0.178573 0.178573 0.178573 0.178573 0.178573 0.178573 0.178573 0.178589 
0.178778 0.178667 0.178555 0.178544 0.178551 0.17855 0.178544 0.178578 0.178563 
0.178576 0.178572 0.178575 0.178577 0.178574 0.178576 0.178573 0.178573 0.178573 
0.178573 0.178573 0.178573 0.178573 0.178573 0.178573 0.178573 0.178573 0.178573 
0.178573 0.178573 0.178573 0.178573 0.178573 0.178573 0.178573 0.178573 0.178573 
0.178573 0.178573 0.178573 0.178573 0.178573 0.178573 0.178573 0.178573 0.178573 
0.178573 0.178573 0.178573 0.178573 0.178573 0.178573 0.178573 0.178573 0.178573 
0.178573 0.178559 0.17857 0.17856 0.178565 0.178576 0.178557 0.178567 0.178576 
0.178577 0.178576 0.178577 0.178573 0.178574 0.178574 0.178574 0.178573 0.178573 
0.178573 0.178573 0.178573 0.178573 0.178573 0.178573 0.178573 0.178573 0.178573 
0.178573 0.178573 0.178573 0.178573 0.178573 0.178573 0.178573 0.178573 0.178573 
0.178573 0.178573 0.178573 0.178573 0.178573 0.178573 0.178573 0.178573 0.178573 
0.178573 0.178573 0.178573 0.178573 0.178573 0.178573 0.178573 0.178573 0.178573 
0.178573 0.178565 0.178559 0.178564 0.178559 0.178578 0.178577 0.17858 0.178575 
0.178576 0.178575 0.178576 0.178573 0.178572 0.178572 0.178572 0.178573 0.178573 
0.178573 0.178573 0.178573 0.178573 0.178573 0.178573 0.178573 0.178573 0.178573 
0.178573 0.178573 0.178573 0.178573 0.178573 0.178573 0.178573 0.178573 0.178573 
0.178573 0.178573 0.178573 0.178573 0.178573 0.178573 0.178573 0.178573 0.178573 
0.178573 0.178573 0.178573 0.178573 0.178573 0.178573 0.178573 0.178577 0.178569 
0.178577 0.178572 0.178578 0.178574 0.178572 0.178574 0.178573 0.178573 0.178573 
0.178573 0.178573 0.178573 0.178573 0.178573 0.178573 0.178573 0.178573 0.178573 
0.178573 0.178573 0.178573 0.178573 0.178573 0.178573 0.178573 0.178573 0.178573 
0.178573 0.178573 0.178573 0.178573 0.178573 0.178573 0.178573 0.178573 0.178573 
0.178573 0.178573 0.178573 0.178573 0.178573 0.178573 0.178573 0.178573 0.178573 
0.178577 0.178577 0.178573 0.178572 0.178573 0.178572 0.178572 0.178573 0.178573 
0.178573 0.178573 0.178573 0.178573 0.178573 0.178573 0.178573 0.178573 0.178573 
0.178573 0.178573 0.178573 0.178573 0.178573 0.178573 0.178573 0.178573 0.178573 
0.178573 0.178573 0.178573 0.178573 0.178573 0.178573 0.178573 0.178573 0.178573 
0.178573 0.178573 0.178573 0.178573 0.178573 0.178573 0.178573 0.178573 0.178573 
0.178573 0.178576 0.178575 0.178573 0.178573 0.178573 0.178573 0.178573 0.178573 
0.178573 0.178573 0.178573 0.178573 0.178573 0.178573 0.178573 0.178573 0.178573 
0.178573 0.178573 0.178573 0.178573 0.178573 0.178573 0.178573 0.178573 0.178573 
0.178573 0.178573 0.178573 0.178573 0.178573 0.178573 0.178573 0.178573 0.178573 
0.178573 0.178573 0.178573 0.178573 0.178573 0.178573 0.178573 0.178573 0.178573 
0.178573 0.178574 0.178573 0.178573 0.178573 0.178573 0.178573 0.178573 0.178573 
0.178573 0.178573 0.178573 0.178573 0.178573 0.178573 0.178573 0.178573 0.178573 
0.178573 0.178573 0.178573 0.178573 0.178573 0.178573 0.178573 0.178573 0.178573 
0.178573 0.178573 0.178573 0.178573 0.178573 0.178573 0.178573 0.178573 0.178573 
0.178573 0.178573 0.178573 0.178573 0.178573 0.178573 0.178572 0.178572 0.178572 
0.178573 0.178573 0.178573 0.178573 0.178573 0.178573 0.178573 0.178573 0.178573 
0.178573 0.178573 0.178573 0.178573 0.178573 0.178573 0.178573 0.178573 0.178573 
0.178573 0.178573 0.178573 0.178573 0.178573 0.178573 0.178573 0.178573 0.178573 
0.178573 0.178573 0.178573 0.178573 0.178573 0.178573 0.178573 0.178573 0.178573 
0.178573 0.178573 0.178573 0.178572 0.178572 0.178572 0.178573 0.178572 0.178573 
0.178573 0.178573 0.178573 0.178573 0.178573 0.178573 0.178573 0.178573 0.178573 
0.178573 0.178573 0.178573 0.178573 0.178573 0.178573 0.178573 0.178573 0.178573 
0.178573 0.178573 0.178573 0.178573 0.178573 0.178573 0.178573 0.178573 0.178573 
0.178573 0.178573 0.178573 0.178573 0.178573 0.178573 0.178573 0.178573 0.178572 
0.178573 0.178572 0.178573 0.178573 0.178573 0.178573 0.178573 0.178573 0.178573 
0.178573 0.178573 0.178573 0.178573 0.178573 0.178573 0.178573 0.178573 0.178573 
0.178573 0.178573 0.178573 0.178573 0.178573 0.178573 0.178573 0.178573 0.178573 
0.178573 0.178573 0.178573 0.178573 0.178573 0.178573 0.178573 0.178573 0.178573 
0.178573 0.178573 0.178573 0.178573 0.178573 0.178573 0.178573 0.178573 0.178573 
0.178573 0.178573 0.178573 0.178573 0.178573 0.178573 0.178573 0.178573 0.178573 
0.178573 0.178573 0.178573 0.178573 0.178573 0.178573 0.178573 0.178573 0.178573 
0.178573 0.178573 0.178573 0.178573 0.178573 0.178573 0.178573 0.178573 0.178573 
0.178573 0.178573 0.178573 0.178573 0.178573 0.178573 0.178573 0.178573 0.178573 
0.178573 0.178573 0.178573 0.178573 0.178573 0.178573 0.178573 0.178573 0.178573 
0.178573 0.178573 0.178573 0.178573 0.178573 0.178573 0.178573 0.178573 0.178573 
0.178573 0.178573 0.178573 0.178573 0.178573 0.178573 0.178573 0.178573 0.178573 
0.178573 0.178573 0.178574 0.178573 0.178574 0.178573 0.178573 0.178573 0.178573 
0.178573 0.178573 0.178573 0.178573 0.178573 0.178573 0.178573 0.178573 0.178573 
0.178573 0.178573 0.178573 0.178573 0.178573 0.178573 0.178573 0.178573 0.178573 
0.178573 0.178573 0.178573 0.178573 0.178573 0.178573 0.178573 0.178573 0.178573 
0.178573 0.178573 0.178573 0.178573 0.178574 0.178573 0.178573 0.178573 0.178573 
0.178573 0.178573 0.178573 0.178573 0.178573 0.178573 0.178573 0.178573 0.178573 
0.178573 0.178573 0.178573 0.178573 0.178573 0.178573 0.178573 0.178573 0.178573 
0.178573 0.178573 0.178573 0.178573 0.178573 0.178573 0.178573 0.178573 0.178573 
0.178573 0.178573 0.178573 0.178573 0.178573 0.178573 0.178573 0.178573 0.178573 
0.178573 0.178573 0.178573 0.178573 0.178573 0.178573 0.178573 0.178573 0.178573 
0.178573 0.178573 0.178573 0.178573 0.178573 0.178573 0.178573 0.178573 0.178573 
0.178573 0.178573 0.178573 0.178573 0.178573 0.178573 0.178573 0.178573 0.178573 
0.178573 0.178573 0.178573 0.178573 0.178573 0.178573 0.178573 0.178573 0.178573 
0.178573 0.178573 0.178573 0.178573 0.178573 0.178573 0.178573 0.178573 0.178573 
0.178573 0.178573 0.178573 0.178573 0.178573 0.178573 0.178573 0.178573 0.178573 
0.178573 0.178573 0.178573 0.178573 0.178574 0.178573 0.178573 0.178573 0.178573 
0.178573 0.178573 0.178573 0.178573 0.178573 0.178573 0.178573 0.178573 0.178573 
0.178573 0.178573 0.178573 0.178573 0.178573 0.178573 0.178573 0.178573 0.178573 
0.178573 0.178573 0.178573 0.178573 0.178573 0.178573 0.178573 0.178573 0.178573 
0.178573 0.178573 0.178573 0.178573 0.178573 0.178573 0.178573 0.178573 0.178573 
0.178573 0.178573 0.178573 0.178573 0.178573 0.178573 0.178573 0.178573 0.178573 
0.178573 0.178573 0.178573 0.178573 0.178573 0.178573 0.178573 0.178573 0.178573 
0.178573 0.178573 0.178573 0.178573 0.178573 0.178573 0.178573 0.178573 0.178573 
0.178573 0.178573 0.178573 0.178573 0.178573 0.178573 0.178573 0.178573 0.178573 
0.178573 0.178573 0.178573 0.178573 0.178573 0.178573 0.178573 0.178573 0.178573 
0.178573 0.178573 0.178573 0.178573 0.178573 0.178573 0.178573 0.178573 0.178573 
0.178573 0.178573 0.178573 0.178573 0.178573 0.178573 0.178573 0.178573 0.178573 
0.178573 0.178573 0.178573 0.178573 0.178573 0.178573 0.178573 0.178573 0.178573 
0.178573 0.178573 0.178573 0.178573 0.178573 0.178573 0.178573 0.178573 0.178573 
0.178573 0.178573 0.178573 0.178573 0.178573 0.178573 0.178573 0.178573 0.178573 
0.178573 0.178573 0.178573 0.178573 0.178573 0.178573 0.178573 0.178573 0.178573 
0.178573 0.178573 0.178573 0.178573 0.178573 0.178573 0.178573 0.178573 0.178573 
0.178573 0.178573 0.178573 0.178573 0.178573 0.178573 0.178573 0.178573 0.178573 
0.178573 0.178573 0.178573 0.178573 0.178573 0.178573 0.178573 0.178573 0.178573 
0.178573 0.178573 0.178573 0.178573 0.178573 0.178573 0.178573 0.178573 0.178573 
0.178573 0.178573 0.178573 0.178573 0.178573 0.178573 0.178573 0.178573 0.178573 
0.178573 0.178573 0.178573 0.178573 0.178573 0.178573 0.178573 0.178573 0.178573 
0.178573 0.178573 0.178573 0.178573 0.178573 0.178573 0.178573 0.178573 0.178573 
0.178573 0.178573 0.178573 0.178573 0.178573 0.178573 0.178573 0.178573 0.178573 
0.178573 0.178573 0.178573 0.178573 0.178573 0.178573 0.178573 0.178573 0.178573 
0.178573 0.178573 0.178573 0.178573 0.178573 0.178573 0.178573 0.178573 0.178573 
0.178573 0.178573 0.178573 0.178573 0.178573 0.178573 0.178573 0.178573 0.178573 
0.178573 0.178573 0.178573 0.178573 0.178573 0.178573 0.178573 0.178573 0.178573 
0.178573 0.178573 0.178573 0.178573 0.178573 0.178573 0.178573 0.178573 0.178573 
0.178573 0.178573 0.178573 0.178573 0.178573 0.178573 0.178573 0.178573 0.178573 
0.178573 0.178573 0.178573 0.178573 0.178573 0.178573 0.178573 0.178573 0.178573 
0.178573 0.178573 0.178573 0.178573 0.178573 0.178573 0.178573 0.178573 0.178573 
0.178573 0.178573 0.178573 0.178573 0.178573 0.178573 0.178573 0.178573 0.178573 
0.178573 0.178573 0.178573 0.178573 0.178573 0.178573 0.178573 0.178573 0.178573 
0.178573 0.178573 0.178573 0.178573 0.178573 0.178573 0.178573 0.178573 0.178573 
0.178573 0.178573 0.178573 0.178573 0.178573 0.178573 0.178573 0.178573 0.178573 
0.178573 0.178573 0.178573 0.178573 0.178573 0.178573 0.178573 0.178573 0.178573 
0.178573 0.178573 0.178573 0.178573 0.178573 0.178573 0.178573 0.178573 0.178573 
0.178573 0.178573 0.178573 
velocity_u 1 2091 float
1 1 1 1 1 1 1 1 1 
1 1 1 1 1 1 1 1 1 
1 1 1 1 1 1 1 1 1 
1 1 1 1 1 1 1 1 1 
1 1 1 1 1 1 1 1 1 
1 1 1 1 1 1 1 1 1 
1 1 1 1 1 1 1 1 1 
1 1 1 1 1 1 1 1 1 
1 1 1 1 1 1 1 1 1 
1 1 1 1 1 1 1 1 1 
1 1 1 1 1 1 1 1 1 
1 1 1 1 1 1 1 1 1 
1 1 1 1 1 1 1 1 1 
1 1 1 1 1 1 1 1 1 
1 1 1 1 1 1 1 1 1 
1 1 1 1 1 1 1 1 1 
1 1 1 1 1 1 1 1 1 
1 1 1 1 1 1 1 1 1 
1 1 1 1 1 1 1 1 1 
1 1 1 1 1 1 1 1 1 
1 1 1 1 1 1 1 1 1 
1 1 1 1 1 1 1 1 1 
1 1 1 1 1 1 1 1 1 
1 1 1 1 1 1 1 1 1 
1 1 1 1 1 1 1 1 1 
1 1 1 1 1 1 1 1 1 
1 1 1 1 1 1 1 1 1 
1 1 1 1 1 1 1 1 1 
1 1 1 1 1 1 1 1 1 
1 1 1 1 1 1 1 1 1 
1 0.999999 0.999999 1 1 1 1 1 1 
1 1 1 1 1 1 1 1 1 
1 1 1 1 1 1 1 1 1 
1 1 1 0.999999 0.999999 0.999999 0.999999 1 1 
1 1 1 1 1 1 1 1 1 
1 1 1 1 1 1 1 1 1 
1 1 1 1 1 1 1 1 1 
1 1 1 0.999999 0.999999 1 1 1 1 
1 1 1 1 1 1 1 1 1 
1 1 1 1 1 1 1 1 0.999999 
0.999999 1 1 1 1 1 1 1 1 
1 1 1 1 1 1 1 1 1 
1 1 1 1 1 1 1 1 1 