# vtk DataFile Version 5.1
vtk output
ASCII
DATASET STRUCTURED_GRID
DIMENSIONS 12 12 55
POINTS 7920 float
1.81747 3 -0.55 1.81747 2.7096 -0.55 1.81747 2.47868 -0.55 
1.81747 2.29456 -0.55 1.81747 2.14718 -0.55 1.81747 2.02846 -0.55 
1.81747 1.9319 -0.55 1.81747 1.85221 -0.55 1.81747 1.78502 -0.55 
1.81747 1.72665 -0.55 1.81747 1.67391 -0.55 1.81747 1.62391 -0.55 
1.82747 3 -0.55 1.82747 2.7096 -0.55 1.82747 2.47868 -0.55 
1.82747 2.29456 -0.55 1.82747 2.14718 -0.55 1.82747 2.02846 -0.55 
1.82747 1.9319 -0.55 1.82747 1.85221 -0.55 1.82747 1.78502 -0.55 
1.82747 1.72665 -0.55 1.82747 1.67391 -0.55 1.82747 1.62391 -0.55 
1.83874 3 -0.55 1.83874 2.7096 -0.55 1.83874 2.47868 -0.55 
1.83874 2.29456 -0.55 1.83874 2.14718 -0.55 1.83874 2.02846 -0.55 
1.83874 1.9319 -0.55 1.83874 1.85221 -0.55 1.83874 1.78502 -0.55 
1.83874 1.72665 -0.55 1.83874 1.67391 -0.55 1.83874 1.62391 -0.55 
1.85271 3 -0.55 1.85271 2.7096 -0.55 1.85271 2.47868 -0.55 
1.85271 2.29456 -0.55 1.85271 2.14718 -0.55 1.85271 2.02846 -0.55 
1.85271 1.9319 -0.55 1.85271 1.85221 -0.55 1.85271 1.78502 -0.55 
1.85271 1.72665 -0.55 1.85271 1.67391 -0.55 1.85271 1.62391 -0.55 
1.87117 3 -0.55 1.87117 2.7096 -0.55 1.87117 2.47868 -0.55 
1.87117 2.29456 -0.55 1.87117 2.14718 -0.55 1.87117 2.02846 -0.55 
1.87117 1.9319 -0.55 1.87117 1.85221 -0.55 1.87117 1.78502 -0.55 
1.87117 1.72665 -0.55 1.87117 1.67391 -0.55 1.87117 1.62391 -0.55 
1.89645 3 -0.55 1.89645 2.7096 -0.55 1.89645 2.47868 -0.55 
1.89645 2.29456 -0.55 1.89645 2.14718 -0.55 1.89645 2.02846 -0.55 
1.89645 1.9319 -0.55 1.89645 1.85221 -0.55 1.89645 1.78502 -0.55 
1.89645 1.72665 -0.55 1.89645 1.67391 -0.55 1.89645 1.62391 -0.55 
1.93176 3 -0.55 1.93176 2.7096 -0.55 1.93176 2.47868 -0.55 
1.93176 2.29456 -0.55 1.93176 2.14718 -0.55 1.93176 2.02846 -0.55 
1.93176 1.9319 -0.55 1.93176 1.85221 -0.55 1.93176 1.78502 -0.55 
1.93176 1.72665 -0.55 1.93176 1.67391 -0.55 1.93176 1.62391 -0.55 
1.9816 3 -0.55 1.9816 2.7096 -0.55 1.9816 2.47868 -0.55 
1.9816 2.29456 -0.55 1.9816 2.14718 -0.55 1.9816 2.02846 -0.55 
1.9816 1.9319 -0.55 1.9816 1.85221 -0.55 1.9816 1.78502 -0.55 
1.9816 1.72665 -0.55 1.9816 1.67391 -0.55 1.9816 1.62391 -0.55 
2.0523 3 -0.55 2.0523 2.7096 -0.55 2.0523 2.47868 -0.55 
2.0523 2.29456 -0.55 2.0523 2.14718 -0.55 2.0523 2.02846 -0.55 
2.0523 1.9319 -0.55 2.0523 1.85221 -0.55 2.0523 1.78502 -0.55 
2.0523 1.72665 -0.55 2.0523 1.67391 -0.55 2.0523 1.62391 -0.55 
2.15285 3 -0.55 2.15285 2.7096 -0.55 2.15285 2.47868 -0.55 
2.15285 2.29456 -0.55 2.15285 2.14718 -0.55 2.15285 2.02846 -0.55 
2.15285 1.9319 -0.55 2.15285 1.85221 -0.55 2.15285 1.78502 -0.55 
2.15285 1.72665 -0.55 2.15285 1.67391 -0.55 2.15285 1.62391 -0.55 
2.29601 3 -0.55 2.29601 2.7096 -0.55 2.29601 2.47868 -0.55 
2.29601 2.29456 -0.55 2.29601 2.14718 -0.55 2.29601 2.02846 -0.55 
2.29601 1.9319 -0.55 2.29601 1.85221 -0.55 2.29601 1.78502 -0.55 
2.29601 1.72665 -0.55 2.29601 1.67391 -0.55 2.29601 1.62391 -0.55 
2.5 3 -0.55 2.5 2.7096 -0.55 2.5 2.47868 -0.55 
2.5 2.29456 -0.55 2.5 2.14718 -0.55 2.5 2.02846 -0.55 
2.5 1.9319 -0.55 2.5 1.85221 -0.55 2.5 1.78502 -0.55 
2.5 1.72665 -0.55 2.5 1.67391 -0.55 2.5 1.62391 -0.55 
1.81747 3 -0.547 1.81747 2.7096 -0.547 1.81747 2.47868 -0.547 
1.81747 2.29456 -0.547 1.81747 2.14718 -0.547 1.81747 2.02846 -0.547 
1.81747 1.9319 -0.547 1.81747 1.85221 -0.547 1.81747 1.78502 -0.547 
1.81747 1.72665 -0.547 1.81747 1.67391 -0.547 1.81747 1.62391 -0.547 
1.82747 3 -0.547 1.82747 2.7096 -0.547 1.82747 2.47868 -0.547 
1.82747 2.29456 -0.547 1.82747 2.14718 -0.547 1.82747 2.02846 -0.547 
1.82747 1.9319 -0.547 1.82747 1.85221 -0.547 1.82747 1.78502 -0.547 
1.82747 1.72665 -0.547 1.82747 1.67391 -0.547 1.82747 1.62391 -0.547 
1.83874 3 -0.547 1.83874 2.7096 -0.547 1.83874 2.47868 -0.547 
1.83874 2.29456 -0.547 1.83874 2.14718 -0.547 1.83874 2.02846 -0.547 
1.83874 1.9319 -0.547 1.83874 1.85221 -0.547 1.83874 1.78502 -0.547 
1.83874 1.72665 -0.547 1.83874 1.67391 -0.547 1.83874 1.62391 -0.547 
1.85271 3 -0.547 1.85271 2.7096 -0.547 1.85271 2.47868 -0.547 
1.85271 2.29456 -0.547 1.85271 2.14718 -0.547 1.85271 2.02846 -0.547 
1.85271 1.9319 -0.547 1.85271 1.85221 -0.547 1.85271 1.78502 -0.547 
1.85271 1.72665 -0.547 1.85271 1.67391 -0.547 1.85271 1.62391 -0.547 
1.87117 3 -0.547 1.87117 2.7096 -0.547 1.87117 2.47868 -0.547 
1.87117 2.29456 -0.547 1.87117 2.14718 -0.547 1.87117 2.02846 -0.547 
1.87117 1.9319 -0.547 1.87117 1.85221 -0.547 1.87117 1.78502 -0.547 
1.87117 1.72665 -0.547 1.87117 1.67391 -0.547 1.87117 1.62391 -0.547 
1.89645 3 -0.547 1.89645 2.7096 -0.547 1.89645 2.47868 -0.547 
1.89645 2.29456 -0.547 1.89645 2.14718 -0.547 1.89645 2.02846 -0.547 
1.89645 1.9319 -0.547 1.89645 1.85221 -0.547 1.89645 1.78502 -0.547 
1.89645 1.72665 -0.547 1.89645 1.67391 -0.547 1.89645 1.62391 -0.547 
1.93176 3 -0.547 1.93176 2.7096 -0.547 1.93176 2.47868 -0.547 
1.93176 2.29456 -0.547 1.93176 2.14718 -0.547 1.93176 2.02846 -0.547 
1.93176 1.9319 -0.547 1.93176 1.85221 -0.547 1.93176 1.78502 -0.547 
1.93176 1.72665 -0.547 1.93176 1.67391 -0.547 1.93176 1.62391 -0.547 
1.9816 3 -0.547 1.9816 2.7096 -0.547 1.9816 2.47868 -0.547 
1.9816 2.29456 -0.547 1.9816 2.14718 -0.547 1.9816 2.02846 -0.547 
1.9816 1.9319 -0.547 1.9816 1.85221 -0.547 1.9816 1.78502 -0.547 
1.9816 1.72665 -0.547 1.9816 1.67391 -0.547 1.9816 1.62391 -0.547 
2.0523 3 -0.547 2.0523 2.7096 -0.547 2.0523 2.47868 -0.547 
2.0523 2.29456 -0.547 2.0523 2.14718 -0.547 2.0523 2.02846 -0.547 
2.0523 1.9319 -0.547 2.0523 1.85221 -0.547 2.0523 1.78502 -0.547 
2.0523 1.72665 -0.547 2.0523 1.67391 -0.547 2.0523 1.62391 -0.547 
2.15285 3 -0.547 2.15285 2.7096 -0.547 2.15285 2.47868 -0.547 
2.15285 2.29456 -0.547 2.15285 2.14718 -0.547 2.15285 2.02846 -0.547 
2.15285 1.9319 -0.547 2.15285 1.85221 -0.547 2.15285 1.78502 -0.547 
2.15285 1.72665 -0.547 2.15285 1.67391 -0.547 2.15285 1.62391 -0.547 
2.29601 3 -0.547 2.29601 2.7096 -0.547 2.29601 2.47868 -0.547 
2.29601 2.29456 -0.547 2.29601 2.14718 -0.547 2.29601 2.02846 -0.547 
2.29601 1.9319 -0.547 2.29601 1.85221 -0.547 2.29601 1.78502 -0.547 
2.29601 1.72665 -0.547 2.29601 1.67391 -0.547 2.29601 1.62391 -0.547 
2.5 3 -0.547 2.5 2.7096 -0.547 2.5 2.47868 -0.547 
2.5 2.29456 -0.547 2.5 2.14718 -0.547 2.5 2.02846 -0.547 
2.5 1.9319 -0.547 2.5 1.85221 -0.547 2.5 1.78502 -0.547 
2.5 1.72665 -0.547 2.5 1.67391 -0.547 2.5 1.62391 -0.547 
1.81747 3 -0.543529 1.81747 2.7096 -0.543529 1.81747 2.47868 -0.543529 
1.81747 2.29456 -0.543529 1.81747 2.14718 -0.543529 1.81747 2.02846 -0.543529 
1.81747 1.9319 -0.543529 1.81747 1.85221 -0.543529 1.81747 1.78502 -0.543529 
1.81747 1.72665 -0.543529 1.81747 1.67391 -0.543529 1.81747 1.62391 -0.543529 
1.82747 3 -0.543529 1.82747 2.7096 -0.543529 1.82747 2.47868 -0.543529 
1.82747 2.29456 -0.543529 1.82747 2.14718 -0.543529 1.82747 2.02846 -0.543529 
1.82747 1.9319 -0.543529 1.82747 1.85221 -0.543529 1.82747 1.78502 -0.543529 
1.82747 1.72665 -0.543529 1.82747 1.67391 -0.543529 1.82747 1.62391 -0.543529 
1.83874 3 -0.543529 1.83874 2.7096 -0.543529 1.83874 2.47868 -0.543529 
1.83874 2.29456 -0.543529 1.83874 2.14718 -0.543529 1.83874 2.02846 -0.543529 
1.83874 1.9319 -0.543529 1.83874 1.85221 -0.543529 1.83874 1.78502 -0.543529 
1.83874 1.72665 -0.543529 1.83874 1.67391 -0.543529 1.83874 1.62391 -0.543529 
1.85271 3 -0.543529 1.85271 2.7096 -0.543529 1.85271 2.47868 -0.543529 
1.85271 2.29456 -0.543529 1.85271 2.14718 -0.543529 1.85271 2.02846 -0.543529 
1.85271 1.9319 -0.543529 1.85271 1.85221 -0.543529 1.85271 1.78502 -0.543529 
1.85271 1.72665 -0.543529 1.85271 1.67391 -0.543529 1.85271 1.62391 -0.543529 
1.87117 3 -0.543529 1.87117 2.7096 -0.543529 1.87117 2.47868 -0.543529 
1.87117 2.29456 -0.543529 1.87117 2.14718 -0.543529 1.87117 2.02846 -0.543529 
1.87117 1.9319 -0.543529 1.87117 1.85221 -0.543529 1.87117 1.78502 -0.543529 
1.87117 1.72665 -0.543529 1.87117 1.67391 -0.543529 1.87117 1.62391 -0.543529 
1.89645 3 -0.543529 1.89645 2.7096 -0.543529 1.89645 2.47868 -0.543529 
1.89645 2.29456 -0.543529 1.89645 2.14718 -0.543529 1.89645 2.02846 -0.543529 
1.89645 1.9319 -0.543529 1.89645 1.85221 -0.543529 1.89645 1.78502 -0.543529 
1.89645 1.72665 -0.543529 1.89645 1.67391 -0.543529 1.89645 1.62391 -0.543529 
1.93176 3 -0.543529 1.93176 2.7096 -0.543529 1.93176 2.47868 -0.543529 
1.93176 2.29456 -0.543529 1.93176 2.14718 -0.543529 1.93176 2.02846 -0.543529 
1.93176 1.9319 -0.543529 1.93176 1.85221 -0.543529 1.93176 1.78502 -0.543529 
1.93176 1.72665 -0.543529 1.93176 1.67391 -0.543529 1.93176 1.62391 -0.543529 
1.9816 3 -0.543529 1.9816 2.7096 -0.543529 1.9816 2.47868 -0.543529 
1.9816 2.29456 -0.543529 1.9816 2.14718 -0.543529 1.9816 2.02846 -0.543529 
1.9816 1.9319 -0.543529 1.9816 1.85221 -0.543529 1.9816 1.78502 -0.543529 
1.9816 1.72665 -0.543529 1.9816 1.67391 -0.543529 1.9816 1.62391 -0.543529 
2.0523 3 -0.543529 2.0523 2.7096 -0.543529 2.0523 2.47868 -0.543529 
2.0523 2.29456 -0.543529 2.0523 2.14718 -0.543529 2.0523 2.02846 -0.543529 
2.0523 1.9319 -0.543529 2.0523 1.85221 -0.543529 2.0523 1.78502 -0.543529 
2.0523 1.72665 -0.543529 2.0523 1.67391 -0.543529 2.0523 1.62391 -0.543529 
2.15285 3 -0.543529 2.15285 2.7096 -0.543529 2.15285 2.47868 -0.543529 
2.15285 2.29456 -0.543529 2.15285 2.14718 -0.543529 2.15285 2.02846 -0.543529 
2.15285 1.9319 -0.543529 2.15285 1.85221 -0.543529 2.15285 1.78502 -0.543529 
2.15285 1.72665 -0.543529 2.15285 1.67391 -0.543529 2.15285 1.62391 -0.543529 
2.29601 3 -0.543529 2.29601 2.7096 -0.543529 2.29601 2.47868 -0.543529 
2.29601 2.29456 -0.543529 2.29601 2.14718 -0.543529 2.29601 2.02846 -0.543529 
2.29601 1.9319 -0.543529 2.29601 1.85221 -0.543529 2.29601 1.78502 -0.543529 
2.29601 1.72665 -0.543529 2.29601 1.67391 -0.543529 2.29601 1.62391 -0.543529 
2.5 3 -0.543529 2.5 2.7096 -0.543529 2.5 2.47868 -0.543529 
2.5 2.29456 -0.543529 2.5 2.14718 -0.543529 2.5 2.02846 -0.543529 
2.5 1.9319 -0.543529 2.5 1.85221 -0.543529 2.5 1.78502 -0.543529 
2.5 1.72665 -0.543529 2.5 1.67391 -0.543529 2.5 1.62391 -0.543529 
[...]
POINT_DATA 7920
FIELD FieldData 5
pressure 1 7920 float
0.178573 0.178573 0.178573 0.178573 0.178573 0.178573 0.178572 0.178573 0.178574 
0.178575 0.178565 0.178581 0.178573 0.178573 0.178573 0.178573 0.178572 0.178573 
0.178574 0.178573 0.178572 0.178575 0.178565 0.178594 0.178573 0.178573 0.178573 
0.178573 0.178574 0.178573 0.178571 0.178573 0.178576 0.178573 0.178559 0.178631 
0.178573 0.178573 0.178573 0.178572 0.178571 0.178573 0.178576 0.178573 0.178571 
0.178572 0.178568 0.17868 0.178573 0.178573 0.178572 0.178574 0.178576 0.178574 
0.178568 0.178573 0.178581 0.178568 0.178565 0.178818 0.178573 0.178573 0.178574 
0.178572 0.178568 0.178571 0.178581 0.178577 0.178563 0.178559 0.17863 0.179069 
0.178573 0.178572 0.178571 0.178575 0.178581 0.178577 0.178559 0.178566 0.178591 
0.178573 0.178691 0.18003 0.178573 0.178574 0.178577 0.178571 0.17856 0.178561 
0.178597 0.178597 0.178526 0.178587 0.179452 0.184 0.178573 0.178571 0.178566 
0.178575 0.178594 0.178602 0.17854 0.178473 0.178683 0.179661 0.184718 0.206337 
0.178573 0.178575 0.178587 0.178574 0.178544 0.178473 0.178624 0.179199 0.18269 
0.198817 0.240633 0.283145 0.178573 0.178573 0.178569 0.178566 0.178626 0.179269 
0.183961 0.204791 0.24516 0.281199 0.295218 0.295022 0.178573 0.178604 0.179353 
0.181752 0.190565 0.208144 0.233001 0.254016 0.258648 0.255034 0.248578 0.236076 
0.178573 0.178573 0.178573 0.178573 0.178573 0.178573 0.178572 0.178573 0.178574 
0.178575 0.178565 0.178582 0.178573 0.178573 0.178573 0.178573 0.178573 0.178573 
0.178574 0.178573 0.178572 0.178575 0.178565 0.178596 0.178573 0.178573 0.178573 
0.178573 0.178574 0.178573 0.178571 0.178573 0.178576 0.178573 0.178559 0.178634 
0.178573 0.178573 0.178573 0.178573 0.178571 0.178573 0.178576 0.178573 0.178571 
0.178572 0.178568 0.178686 0.178573 0.178573 0.178572 0.178574 0.178576 0.178573 
0.178568 0.178573 0.178581 0.178567 0.178567 0.178829 0.178573 0.178573 0.178574 
0.178572 0.178568 0.178571 0.178581 0.178576 0.178563 0.17856 0.178632 0.179093 
0.178573 0.178572 0.178571 0.178575 0.178581 0.178577 0.178559 0.178567 0.178591 
0.178573 0.1787 0.180093 0.178573 0.178574 0.178577 0.178571 0.17856 0.178561 
0.178598 0.178596 0.178526 0.178593 0.179489 0.184188 0.178573 0.178571 0.178566 
0.178575 0.178594 0.178602 0.17854 0.178474 0.178689 0.179703 0.184931 0.20705 
0.178573 0.178575 0.178587 0.178574 0.178544 0.178473 0.178627 0.179227 0.182847 
0.199444 0.24215 0.284727 0.178573 0.178573 0.178569 0.178566 0.178628 0.179291 
0.18413 0.205449 0.246235 0.28221 0.295762 0.295258 0.178573 0.178604 0.179362 
0.181791 0.190708 0.208463 0.233492 0.254422 0.258786 0.255064 0.248453 0.235797 
0.178573 0.178573 0.178573 0.178573 0.178573 0.178573 0.178572 0.178573 0.178574 
0.178575 0.178565 0.178583 0.178573 0.178573 0.178573 0.178573 0.178573 0.178573 
0.178574 0.178573 0.178572 0.178575 0.178564 0.178598 0.178573 0.178573 0.178573 
0.178573 0.178574 0.178573 0.178571 0.178573 0.178576 0.178573 0.178559 0.178637 
0.178573 0.178573 0.178573 0.178573 0.178571 0.178573 0.178576 0.178573 0.178571 
0.178572 0.178568 0.178692 0.178573 0.178573 0.178572 0.178574 0.178576 0.178573 
0.178568 0.178573 0.178581 0.178567 0.178569 0.178839 0.178573 0.178573 0.178574 
0.178572 0.178568 0.178572 0.178581 0.178576 0.178563 0.17856 0.178634 0.179115 
0.178573 0.178572 0.178571 0.178575 0.178581 0.178577 0.178559 0.178567 0.178591 
0.178573 0.178708 0.180149 0.178573 0.178574 0.178577 0.178571 0.17856 0.178562 
0.178598 0.178595 0.178525 0.178599 0.179521 0.184354 0.178573 0.178571 0.178566 
0.178575 0.178594 0.178601 0.178539 0.178475 0.178693 0.179741 0.185114 0.207719 
0.178573 0.178575 0.178587 0.178574 0.178543 0.178474 0.178631 0.179251 0.182988 
0.200033 0.243664 0.286186 0.178573 0.178573 0.178569 0.178567 0.178629 0.179311 
0.184265 0.205983 0.247204 0.283133 0.296136 0.295387 0.178573 0.178604 0.179368 
0.181815 0.190806 0.208688 0.23384 0.254691 0.258832 0.255 0.248258 0.235463 
0.178573 0.178573 0.178573 0.178573 0.178573 0.178573 0.178572 0.178573 0.178574 
0.178575 0.178565 0.178584 0.178573 0.178573 0.178573 0.178573 0.178573 0.178573 
0.178574 0.178573 0.178573 0.178575 0.178564 0.178601 0.178573 0.178573 0.178573 
0.178573 0.178574 0.178573 0.178571 0.178573 0.178576 0.178573 0.178559 0.178641 
0.178573 0.178573 0.178573 0.178573 0.178571 0.178573 0.178576 0.178573 0.178571 
0.178571 0.178569 0.178701 0.178573 0.178573 0.178572 0.178574 0.178576 0.178573 
0.178568 0.178573 0.178581 0.178566 0.178571 0.178853 0.178573 0.178573 0.178574 
0.178572 0.178568 0.178572 0.178581 0.178576 0.178562 0.17856 0.178637 0.179147 
0.178573 0.178572 0.178571 0.178575 0.178581 0.178577 0.178559 0.178568 0.178591 
0.178573 0.17872 0.18023 0.178573 0.178574 0.178577 0.178571 0.17856 0.178562 
0.178598 0.178594 0.178525 0.178607 0.179566 0.184592 0.178573 0.178571 0.178566 
0.178575 0.178594 0.1786 0.178538 0.178476 0.178701 0.179793 0.18538 0.208606 
0.178573 0.178575 0.178587 0.178574 0.178543 0.178475 0.178634 0.179289 0.183179 
0.200835 0.245502 0.288048 0.178573 0.178573 0.178569 0.178567 0.178632 0.179336 
0.184477 0.206711 0.248482 0.284308 0.296706 0.295574 0.178573 0.178605 0.179378 
0.18186 0.190963 0.209049 0.234356 0.255128 0.258923 0.254984 0.248023 0.235063 
0.178573 0.178573 0.178573 0.178573 0.178573 0.178573 0.178572 0.178573 0.178574 
0.178575 0.178564 0.178586 0.178573 0.178573 0.178573 0.178573 0.178573 0.178573 
0.178574 0.178573 0.178573 0.178575 0.178564 0.178604 0.178573 0.178573 0.178573 
0.178573 0.178574 0.178573 0.178571 0.178573 0.178576 0.178573 0.17856 0.178646 
0.178573 0.178573 0.178573 0.178573 0.178571 0.178573 0.178576 0.178573 0.178571 
0.178571 0.17857 0.178711 0.178573 0.178573 0.178572 0.178574 0.178576 0.178573 
0.178568 0.178573 0.178581 0.178566 0.178574 0.178869 0.178573 0.178573 0.178574 
0.178572 0.178568 0.178572 0.178581 0.178575 0.178562 0.178561 0.178641 0.179183 
0.178573 0.178572 0.178571 0.178575 0.178581 0.178576 0.178559 0.178568 0.17859 
0.178573 0.178734 0.18032 0.178573 0.178574 0.178577 0.178571 0.178559 0.178562 
0.178599 0.178592 0.178525 0.178616 0.179617 0.184855 0.178573 0.178571 0.178566 
0.178575 0.178595 0.1786 0.178537 0.178478 0.178708 0.179853 0.185677 0.209602 
0.178573 0.178575 0.178587 0.178573 0.178542 0.178475 0.17864 0.179325 0.183406 
0.201723 0.24758 0.29009 0.178573 0.178573 0.178569 0.178567 0.178634 0.179368 
0.184692 0.207519 0.249854 0.285556 0.297263 0.295756 0.178573 0.178605 0.179389 
0.181901 0.191128 0.20941 0.234901 0.255534 0.259001 0.254939 0.247746 0.234582 
0.178573 0.178573 0.178573 0.178573 0.178573 0.178573 0.178572 0.178573 0.178574 
0.178575 0.178564 0.178588 0.178573 0.178573 0.178573 0.178573 0.178573 0.178573 
0.178574 0.178573 0.178573 0.178575 0.178564 0.178608 0.178573 0.178573 0.178573 
0.178573 0.178574 0.178573 0.178571 0.178573 0.178576 0.178572 0.17856 0.178652 
0.178573 0.178573 0.178573 0.178573 0.178571 0.178573 0.178576 0.178573 0.178571 
0.178571 0.17857 0.178724 0.178573 0.178573 0.178572 0.178574 0.178576 0.178573 
0.178568 0.178574 0.178581 0.178565 0.178578 0.178888 0.178573 0.178573 0.178574 
0.178572 0.178568 0.178572 0.178581 0.178575 0.178562 0.178562 0.178644 0.179227 
0.178573 0.178572 0.178571 0.178575 0.178581 0.178576 0.178558 0.178569 0.17859 
0.178573 0.178751 0.180432 0.178573 0.178574 0.178577 0.17857 0.178559 0.178563 
0.178599 0.178591 0.178524 0.178628 0.179679 0.185178 0.178573 0.178571 0.178567 
0.178575 0.178595 0.178599 0.178537 0.17848 0.178719 0.179924 0.186052 0.210801 
0.178573 0.178575 0.178586 0.178573 0.178542 0.178477 0.178644 0.179378 0.183675 
0.202814 0.249999 0.292517 0.178573 0.178573 0.178569 0.178567 0.178638 0.1794 
0.184973 0.208483 0.251517 0.28698 0.297952 0.295951 0.178573 0.178605 0.179401 
0.181957 0.191325 0.209868 0.235542 0.256044 0.259069 0.254925 0.247408 0.234019 
0.178573 0.178573 0.178573 0.178573 0.178573 0.178573 0.178572 0.178573 0.178574 
0.178575 0.178564 0.17859 0.178573 0.178573 0.178573 0.178573 0.178572 0.178573 
0.178574 0.178573 0.178573 0.178575 0.178564 0.178613 0.178573 0.178573 0.178573 
0.178573 0.178574 0.178573 0.178571 0.178573 0.178576 0.178572 0.178561 0.178659 
0.178573 0.178573 0.178573 0.178572 0.178571 0.178573 0.178576 0.178572 0.178571 
0.178571 0.178571 0.178738 0.178573 0.178573 0.178572 0.178574 0.178576 0.178573 
0.178568 0.178574 0.178581 0.178564 0.178583 0.178911 0.178573 0.178573 0.178574 
0.178572 0.178568 0.178572 0.178581 0.178575 0.178562 0.178563 0.178649 0.179279 
0.178573 0.178572 0.178571 0.178575 0.178581 0.178576 0.178558 0.17857 0.17859 
0.178572 0.17877 0.180564 0.178573 0.178574 0.178577 0.17857 0.178559 0.178564 
0.1786 0.178589 0.178523 0.178641 0.179753 0.185557 0.178573 0.178571 0.178567 
0.178576 0.178596 0.178597 0.178535 0.178484 0.17873 0.180012 0.1865 0.212214 
0.178573 0.178575 0.178586 0.178573 0.178541 0.178478 0.178652 0.179432 0.184013 
0.204088 0.252777 0.295272 0.178573 0.178573 0.178569 0.178568 0.178641 0.179446 
0.185283 0.209623 0.253364 0.288539 0.298684 0.296156 0.178573 0.178606 0.179415 
0.182016 0.191555 0.210363 0.236278 0.256566 0.259146 0.254916 0.247012 0.233344 
0.178573 0.178573 0.178573 0.178573 0.178573 0.178573 0.178572 0.178573 0.178574 
0.178575 0.178564 0.178593 0.178573 0.178573 0.178573 0.178573 0.178572 0.178573 
0.178574 0.178572 0.178573 0.178575 0.178563 0.178618 0.178573 0.178573 0.178573 
0.178573 0.178574 0.178573 0.178571 0.178574 0.178576 0.178571 0.178563 0.178667 
0.178573 0.178573 0.178573 0.178572 0.178571 0.178573 0.178576 0.178572 0.178571 
0.178571 0.178572 0.178756 0.178573 0.178573 0.178572 0.178574 0.178576 0.178573 
0.178568 0.178574 0.178581 0.178563 0.178588 0.178939 0.178573 0.178573 0.178574 
0.178572 0.178568 0.178573 0.178581 0.178574 0.178562 0.178564 0.178654 0.179343 
0.178573 0.178572 0.178571 0.178575 0.178581 0.178575 0.178558 0.178571 0.17859 
0.178572 0.178794 0.180725 0.178573 0.178574 0.178577 0.17857 0.178559 0.178565 
0.1786 0.178587 0.178523 0.178658 0.179842 0.186013 0.178573 0.178571 0.178567 
0.178576 0.178596 0.178596 0.178534 0.178487 0.178744 0.180116 0.187057 0.213913 
0.178573 0.178575 0.178586 0.178573 0.17854 0.178481 0.178657 0.179506 0.184419 
0.20564 0.255963 0.298467 0.178573 0.178573 0.178569 0.178568 0.178647 0.179491 
0.185673 0.210961 0.255535 0.290244 0.299524 0.29636 0.178573 0.178606 0.179432 
0.182089 0.191814 0.210961 0.237111 0.257162 0.259204 0.254938 0.246536 0.232538 
0.178573 0.178573 0.178573 0.178573 0.178573 0.178573 0.178572 0.178573 0.178574 
0.178574 0.178564 0.178596 0.178573 0.178573 0.178573 0.178573 0.178572 0.178573 
0.178574 0.178572 0.178573 0.178574 0.178563 0.178625 0.178573 0.178573 0.178573 
0.178573 0.178574 0.178573 0.178571 0.178574 0.178576 0.178571 0.178564 0.178677 
0.178573 0.178573 0.178573 0.178572 0.178572 0.178573 0.178575 0.178572 0.178572 
0.17857 0.178574 0.178777 0.178573 0.178573 0.178572 0.178574 0.178576 0.178573 
0.178568 0.178575 0.17858 0.178561 0.178594 0.178972 0.178573 0.178573 0.178574 
0.178571 0.178568 0.178573 0.178581 0.178574 0.178562 0.178566 0.178661 0.17942 
0.178573 0.178572 0.178571 0.178575 0.178581 0.178575 0.178558 0.178572 0.178589 
0.178572 0.178823 0.180918 0.178573 0.178574 0.178577 0.17857 0.178559 0.178565 
0.178601 0.178584 0.178522 0.178677 0.179948 0.186558 0.178573 0.178571 0.178567 
0.178576 0.178597 0.178594 0.178532 0.178494 0.178761 0.180244 0.187745 0.215969 
0.178573 0.178575 0.178586 0.178572 0.178539 0.178484 0.178669 0.179587 0.184932 
0.20751 0.259612 0.302104 0.178573 0.178573 0.178569 0.178569 0.178651 0.179554 
0.186116 0.212572 0.257944 0.292076 0.30042 0.29657 0.178573 0.178607 0.179451 
0.182168 0.192121 0.211622 0.238079 0.257774 0.259297 0.254981 0.245977 0.23157 
0.178573 0.178573 0.178573 0.178573 0.178573 0.178573 0.178572 0.178573 0.178574 
0.178574 0.178564 0.178601 0.178573 0.178573 0.178573 0.178573 0.178572 0.178573 
0.178574 0.178572 0.178573 0.178574 0.178563 0.178633 0.178573 0.178573 0.178573 
0.178573 0.178574 0.178573 0.178571 0.178574 0.178576 0.17857 0.178566 0.17869 
0.178573 0.178573 0.178573 0.178572 0.178571 0.178573 0.178575 0.178572 0.178572 
0.17857 0.178575 0.178802 0.178573 0.178573 0.178572 0.178574 0.178576 0.178572 
0.178568 0.178575 0.17858 0.17856 0.178602 0.179013 0.178573 0.178573 0.178574 
0.178571 0.178568 0.178573 0.178581 0.178573 0.178561 0.178568 0.178668 0.179514 
0.178573 0.178572 0.178571 0.178575 0.178581 0.178574 0.178558 0.178574 0.178589 
0.178572 0.178858 0.181152 0.178573 0.178574 0.178576 0.17857 0.178558 0.178567 
0.178601 0.17858 0.178521 0.1787 0.180077 0.18722 0.178573 0.178571 0.178567 
0.178577 0.178597 0.178592 0.178531 0.178501 0.178782 0.1804 0.188609 0.218494 
0.178573 0.178575 0.178586 0.178572 0.178538 0.178489 0.178677 0.179693 0.185564 
0.209813 0.263762 0.306238 0.178573 0.178573 0.178569 0.17857 0.178659 0.179618 
0.186664 0.21448 0.260656 0.293989 0.301415 0.296755 0.178573 0.178607 0.179473 
0.182265 0.192466 0.212404 0.239161 0.258431 0.25943 0.255044 0.245309 0.230434 
0.178573 0.178573 0.178573 0.178573 0.178573 0.178573 0.178572 0.178573 0.178574 
0.178574 0.178564 0.178606 0.178573 0.178573 0.178573 0.178573 0.178572 0.178573 
0.178574 0.178572 0.178573 0.178574 0.178563 0.178643 0.178573 0.178573 0.178573 
0.178573 0.178574 0.178573 0.178571 0.178574 0.178576 0.178569 0.178568 0.178706 
0.178573 0.178573 0.178573 0.178572 0.178571 0.178574 0.178575 0.178572 0.178572 
0.17857 0.178577 0.178832 0.178573 0.178573 0.178572 0.178574 0.178576 0.178572 
0.178568 0.178576 0.17858 0.178558 0.17861 0.179062 0.178573 0.178573 0.178574 
0.178571 0.178568 0.178574 0.178581 0.178572 0.178561 0.178571 0.178678 0.179628 
0.178573 0.178572 0.178571 0.178576 0.178582 0.178573 0.178558 0.178575 0.178588 
0.178573 0.1789 0.181436 0.178573 0.178574 0.178576 0.17857 0.178558 0.178568 
0.178602 0.178577 0.17852 0.178728 0.180234 0.188028 0.178573 0.178571 0.178567 
0.178577 0.178598 0.17859 0.178528 0.178511 0.178808 0.180593 0.189694 0.221639 
0.178573 0.178575 0.178585 0.178571 0.178537 0.178494 0.178693 0.179815 0.186366 
0.212653 0.26847 0.310856 0.178573 0.178573 0.178569 0.178571 0.178665 0.179704 
0.187299 0.216787 0.263708 0.295966 0.302484 0.29693 0.178573 0.178608 0.179499 
0.182373 0.192873 0.213265 0.24042 0.259042 0.259621 0.255117 0.244529 0.229103 
0.178573 0.178573 0.178573 0.178573 0.178573 0.178573 0.178572 0.178573 0.178574 
0.178573 0.178564 0.178612 0.178573 0.178573 0.178573 0.178573 0.178572 0.178573 
0.178574 0.178572 0.178573 0.178573 0.178564 0.178655 0.178573 0.178573 0.178573 
0.178573 0.178574 0.178572 0.178571 0.178574 0.178576 0.178568 0.178571 0.178726 
0.178573 0.178573 0.178573 0.178572 0.178571 0.178574 0.178575 0.178572 0.178572 
0.17857 0.17858 0.178869 0.178573 0.178573 0.178572 0.178574 0.178576 0.178572 
0.178568 0.178576 0.17858 0.178556 0.17862 0.179124 0.178573 0.178573 0.178574 
0.178571 0.178568 0.178574 0.178581 0.178571 0.178561 0.178574 0.17869 0.179769 
0.178573 0.178572 0.178571 0.178576 0.178582 0.178573 0.178558 0.178577 0.178588 
0.178573 0.178951 0.181783 0.178573 0.178574 0.178576 0.178569 0.178558 0.17857 
0.178603 0.178572 0.178519 0.178761 0.180425 0.189028 0.178573 0.178572 0.178567 
0.178577 0.178599 0.178587 0.178526 0.178522 0.178842 0.18083 0.191068 0.225635 
0.178573 0.178575 0.178585 0.17857 0.178535 0.178501 0.178707 0.179971 0.187365 
0.21617 0.273774 0.315917 0.178573 0.178573 0.178569 0.178572 0.178677 0.179796 
0.188066 0.219583 0.266754 0.297715 0.303636 0.297086 0.178573 0.178609 0.179527 
0.182504 0.193325 0.214261 0.241824 0.259598 0.260115 0.255236 0.243611 0.227584 
0.178573 0.178573 0.178573 0.178573 0.178573 0.178573 0.178573 0.178573 0.178574 
0.178573 0.178565 0.178621 0.178573 0.178573 0.178573 0.178573 0.178573 0.178573 
0.178574 0.178572 0.178574 0.178573 0.178564 0.178669 0.178573 0.178573 0.178573 
0.178573 0.178574 0.178572 0.178572 0.178574 0.178576 0.178567 0.178575 0.17875 
0.178573 0.178573 0.178573 0.178572 0.178572 0.178574 0.178575 0.178571 0.178572 
0.17857 0.178583 0.178912 0.178573 0.178573 0.178572 0.178574 0.178576 0.178572 
0.178568 0.178577 0.178579 0.178554 0.178631 0.1792 0.178573 0.178573 0.178574 
0.178571 0.178568 0.178575 0.178581 0.17857 0.17856 0.178578 0.178705 0.179942 
0.178573 0.178572 0.178571 0.178576 0.178582 0.178572 0.178558 0.178579 0.178588 
0.178575 0.179013 0.182204 0.178573 0.178574 0.178576 0.178569 0.178558 0.178571 
0.178604 0.178567 0.178518 0.1788 0.180659 0.190281 0.178573 0.178572 0.178567 
0.178578 0.1786 0.178584 0.178521 0.178536 0.178884 0.181126 0.192809 0.230787 
0.178573 0.178575 0.178585 0.17857 0.178533 0.178509 0.178729 0.180154 0.188627 
0.220477 0.279709 0.321274 0.178573 0.178572 0.178569 0.178574 0.178686 0.179916 
0.188957 0.22282 0.270199 0.299649 0.304914 0.297213 0.178573 0.17861 0.179562 
0.182648 0.193857 0.215364 0.243429 0.260125 0.260651 0.255278 0.242549 0.225913 
0.178573 0.178573 0.178573 0.178573 0.178573 0.178573 0.178573 0.178573 0.178574 
0.178572 0.178566 0.178631 0.178573 0.178573 0.178573 0.178573 0.178573 0.178573 
0.178574 0.178572 0.178574 0.178573 0.178565 0.178687 0.178573 0.178573 0.178573 
0.178573 0.178574 0.178572 0.178572 0.178574 0.178576 0.178566 0.178579 0.178781 
0.178573 0.178573 0.178573 0.178572 0.178572 0.178574 0.178575 0.178571 0.178572 
0.17857 0.178587 0.178963 0.178573 0.178573 0.178572 0.178574 0.178576 0.178571 
0.178569 0.178577 0.178579 0.178553 0.178643 0.179296 0.178573 0.178573 0.178574 
0.178571 0.178568 0.178575 0.178581 0.178569 0.17856 0.178583 0.178724 0.180155 
0.178573 0.178572 0.178571 0.178576 0.178582 0.17857 0.178558 0.178581 0.178587 
0.178577 0.179089 0.182716 0.178573 0.178574 0.178576 0.178569 0.178557 0.178574 
0.178605 0.178562 0.178517 0.178846 0.180944 0.191857 0.178573 0.178572 0.178568 
0.178579 0.178601 0.17858 0.178517 0.178551 0.178938 0.18149 0.195012 0.237349 
0.178573 0.178575 0.178584 0.178569 0.178529 0.17852 0.178753 0.180381 0.19017 
0.225688 0.286288 0.326774 0.178573 0.178572 0.178569 0.178575 0.178703 0.180049 
0.190019 0.2262 0.274075 0.301704 0.306217 0.297339 0.178573 0.178611 0.179599 
0.182822 0.194449 0.216632 0.24516 0.260879 0.261233 0.255106 0.24132 0.224076 
0.178573 0.178573 0.178573 0.178573 0.178573 0.178573 0.178573 0.178573 0.178574 
0.178572 0.178567 0.178644 0.178573 0.178573 0.178573 0.178573 0.178573 0.178573 
0.178574 0.178572 0.178574 0.178572 0.178567 0.178709 0.178573 0.178573 0.178573 
0.178573 0.178574 0.178572 0.178572 0.178575 0.178576 0.178565 0.178582 0.178817 
0.178573 0.178573 0.178573 0.178572 0.178571 0.178574 0.178575 0.178571 0.178572 
0.17857 0.178592 0.179024 0.178573 0.178573 0.178573 0.178574 0.178576 0.178571 
0.178569 0.178578 0.178578 0.178551 0.178657 0.179414 0.178573 0.178573 0.178574 
0.178571 0.178568 0.178576 0.178581 0.178568 0.178559 0.178588 0.178749 0.180415 
0.178573 0.178572 0.178571 0.178576 0.178582 0.178569 0.178558 0.178584 0.178587 
0.178581 0.179181 0.183334 0.178573 0.178574 0.178576 0.178568 0.178557 0.178576 
0.178606 0.178557 0.178516 0.1789 0.181288 0.193829 0.178573 0.178571 0.178568 
0.178579 0.178602 0.178576 0.178511 0.178568 0.179005 0.181935 0.197773 0.245388 
0.178573 0.178575 0.178584 0.178567 0.178526 0.178531 0.178786 0.180648 0.192039 
0.231874 0.29357 0.332264 0.178573 0.178572 0.178568 0.178577 0.178718 0.180222 
0.191297 0.230084 0.278298 0.303771 0.307542 0.297521 0.178573 0.178612 0.179645 
0.183012 0.195138 0.218028 0.247068 0.261646 0.261791 0.254798 0.239921 0.222114 
0.178573 0.178573 0.178573 0.178573 0.178573 0.178573 0.178573 0.178573 0.178574 
0.178571 0.178568 0.178661 0.178573 0.178573 0.178573 0.178573 0.178573 0.178573 
0.178573 0.178572 0.178574 0.178572 0.178568 0.178735 0.178573 0.178573 0.178573 
0.178574 0.178574 0.178572 0.178572 0.178575 0.178576 0.178563 0.178587 0.178862 