# vtk DataFile Version 5.1
vtk output
ASCII
DATASET STRUCTURED_GRID
DIMENSIONS 20 41 44
POINTS 36080 float
4.15 -0.63 -0.5 4.15 -0.63 -0.497 4.15 -0.63 -0.493548 
4.15 -0.63 -0.489579 4.15 -0.63 -0.485022 4.15 -0.63 -0.479796 
4.15 -0.63 -0.473812 4.15 -0.63 -0.466971 4.15 -0.63 -0.459165 
4.15 -0.63 -0.450279 4.15 -0.63 -0.440188 4.15 -0.63 -0.428762 
4.15 -0.63 -0.415865 4.15 -0.63 -0.401362 4.15 -0.63 -0.385118 
4.15 -0.63 -0.36701 4.15 -0.63 -0.346925 4.15 -0.63 -0.324774 
4.15 -0.63 -0.300497 4.15 -0.63 -0.274072 4.15 -0.627 -0.5 
4.15 -0.627 -0.497 4.15 -0.627 -0.493548 4.15 -0.627 -0.489579 
4.15 -0.627 -0.485022 4.15 -0.627 -0.479796 4.15 -0.627 -0.473812 
4.15 -0.627 -0.466971 4.15 -0.627 -0.459165 4.15 -0.627 -0.450279 
4.15 -0.627 -0.440188 4.15 -0.627 -0.428762 4.15 -0.627 -0.415865 
4.15 -0.627 -0.401362 4.15 -0.627 -0.385118 4.15 -0.627 -0.36701 
4.15 -0.627 -0.346925 4.15 -0.627 -0.324774 4.15 -0.627 -0.300497 
4.15 -0.627 -0.274072 4.15 -0.623787 -0.5 4.15 -0.623787 -0.497 
4.15 -0.623787 -0.493548 4.15 -0.623787 -0.489579 4.15 -0.623787 -0.485022 
4.15 -0.623787 -0.479796 4.15 -0.623787 -0.473812 4.15 -0.623787 -0.466971 
4.15 -0.623787 -0.459165 4.15 -0.623787 -0.450279 4.15 -0.623787 -0.440188 
4.15 -0.623787 -0.428762 4.15 -0.623787 -0.415865 4.15 -0.623787 -0.401362 
4.15 -0.623787 -0.385118 4.15 -0.623787 -0.36701 4.15 -0.623787 -0.346925 
4.15 -0.623787 -0.324774 4.15 -0.623787 -0.300497 4.15 -0.623787 -0.274072 
4.15 -0.620354 -0.5 4.15 -0.620354 -0.497 4.15 -0.620354 -0.493548 
4.15 -0.620354 -0.489579 4.15 -0.620354 -0.485022 4.15 -0.620354 -0.479796 
4.15 -0.620354 -0.473812 4.15 -0.620354 -0.466971 4.15 -0.620354 -0.459165 
4.15 -0.620354 -0.450279 4.15 -0.620354 -0.440188 4.15 -0.620354 -0.428762 
4.15 -0.620354 -0.415865 4.15 -0.620354 -0.401362 4.15 -0.620354 -0.385118 
4.15 -0.620354 -0.36701 4.15 -0.620354 -0.346925 4.15 -0.620354 -0.324774 
4.15 -0.620354 -0.300497 4.15 -0.620354 -0.274072 4.15 -0.616695 -0.5 
4.15 -0.616695 -0.497 4.15 -0.616695 -0.493548 4.15 -0.616695 -0.489579 
4.15 -0.616695 -0.485022 4.15 -0.616695 -0.479796 4.15 -0.616695 -0.473812 
4.15 -0.616695 -0.466971 4.15 -0.616695 -0.459165 4.15 -0.616695 -0.450279 
4.15 -0.616695 -0.440188 4.15 -0.616695 -0.428762 4.15 -0.616695 -0.415865 
4.15 -0.616695 -0.401362 4.15 -0.616695 -0.385118 4.15 -0.616695 -0.36701 
4.15 -0.616695 -0.346925 4.15 -0.616695 -0.324774 4.15 -0.616695 -0.300497 
4.15 -0.616695 -0.274072 4.15 -0.612804 -0.5 4.15 -0.612804 -0.497 
4.15 -0.612804 -0.493548 4.15 -0.612804 -0.489579 4.15 -0.612804 -0.485022 
4.15 -0.612804 -0.479796 4.15 -0.612804 -0.473812 4.15 -0.612804 -0.466971 
4.15 -0.612804 -0.459165 4.15 -0.612804 -0.450279 4.15 -0.612804 -0.440188 
4.15 -0.612804 -0.428762 4.15 -0.612804 -0.415865 4.15 -0.612804 -0.401362 
4.15 -0.612804 -0.385118 4.15 -0.612804 -0.36701 4.15 -0.612804 -0.346925 
4.15 -0.612804 -0.324774 4.15 -0.612804 -0.300497 4.15 -0.612804 -0.274072 
4.15 -0.608679 -0.5 4.15 -0.608679 -0.497 4.15 -0.608679 -0.493548 
4.15 -0.608679 -0.489579 4.15 -0.608679 -0.485022 4.15 -0.608679 -0.479796 
4.15 -0.608679 -0.473812 4.15 -0.608679 -0.466971 4.15 -0.608679 -0.459165 
4.15 -0.608679 -0.450279 4.15 -0.608679 -0.440188 4.15 -0.608679 -0.428762 
4.15 -0.608679 -0.415865 4.15 -0.608679 -0.401362 4.15 -0.608679 -0.385118 
4.15 -0.608679 -0.36701 4.15 -0.608679 -0.346925 4.15 -0.608679 -0.324774 
4.15 -0.608679 -0.300497 4.15 -0.608679 -0.274072 4.15 -0.604319 -0.5 
4.15 -0.604319 -0.497 4.15 -0.604319 -0.493548 4.15 -0.604319 -0.489579 
4.15 -0.604319 -0.485022 4.15 -0.604319 -0.479796 4.15 -0.604319 -0.473812 
4.15 -0.604319 -0.466971 4.15 -0.604319 -0.459165 4.15 -0.604319 -0.450279 
4.15 -0.604319 -0.440188 4.15 -0.604319 -0.428762 4.15 -0.604319 -0.415865 
4.15 -0.604319 -0.401362 4.15 -0.604319 -0.385118 4.15 -0.604319 -0.36701 
4.15 -0.604319 -0.346925 4.15 -0.604319 -0.324774 4.15 -0.604319 -0.300497 
4.15 -0.604319 -0.274072 4.15 -0.599723 -0.5 4.15 -0.599723 -0.497 
4.15 -0.599723 -0.493548 4.15 -0.599723 -0.489579 4.15 -0.599723 -0.485022 
4.15 -0.599723 -0.479796 4.15 -0.599723 -0.473812 4.15 -0.599723 -0.466971 
4.15 -0.599723 -0.459165 4.15 -0.599723 -0.450279 4.15 -0.599723 -0.440188 
4.15 -0.599723 -0.428762 4.15 -0.599723 -0.415865 4.15 -0.599723 -0.401362 
4.15 -0.599723 -0.385118 4.15 -0.599723 -0.36701 4.15 -0.599723 -0.346925 
4.15 -0.599723 -0.324774 4.15 -0.599723 -0.300497 4.15 -0.599723 -0.274072 
4.15 -0.594895 -0.5 4.15 -0.594895 -0.497 4.15 -0.594895 -0.493548 
4.15 -0.594895 -0.489579 4.15 -0.594895 -0.485022 4.15 -0.594895 -0.479796 
4.15 -0.594895 -0.473812 4.15 -0.594895 -0.466971 4.15 -0.594895 -0.459165 
4.15 -0.594895 -0.450279 4.15 -0.594895 -0.440188 4.15 -0.594895 -0.428762 
4.15 -0.594895 -0.415865 4.15 -0.594895 -0.401362 4.15 -0.594895 -0.385118 
4.15 -0.594895 -0.36701 4.15 -0.594895 -0.346925 4.15 -0.594895 -0.324774 
4.15 -0.594895 -0.300497 4.15 -0.594895 -0.274072 4.15 -0.589841 -0.5 
4.15 -0.589841 -0.497 4.15 -0.589841 -0.493548 4.15 -0.589841 -0.489579 
4.15 -0.589841 -0.485022 4.15 -0.589841 -0.479796 4.15 -0.589841 -0.473812 
4.15 -0.589841 -0.466971 4.15 -0.589841 -0.459165 4.15 -0.589841 -0.450279 
4.15 -0.589841 -0.440188 4.15 -0.589841 -0.428762 4.15 -0.589841 -0.415865 
4.15 -0.589841 -0.401362 4.15 -0.589841 -0.385118 4.15 -0.589841 -0.36701 
4.15 -0.589841 -0.346925 4.15 -0.589841 -0.324774 4.15 -0.589841 -0.300497 
4.15 -0.589841 -0.274072 4.15 -0.584568 -0.5 4.15 -0.584568 -0.497 
4.15 -0.584568 -0.493548 4.15 -0.584568 -0.489579 4.15 -0.584568 -0.485022 
4.15 -0.584568 -0.479796 4.15 -0.584568 -0.473812 4.15 -0.584568 -0.466971 
4.15 -0.584568 -0.459165 4.15 -0.584568 -0.450279 4.15 -0.584568 -0.440188 
4.15 -0.584568 -0.428762 4.15 -0.584568 -0.415865 4.15 -0.584568 -0.401362 
4.15 -0.584568 -0.385118 4.15 -0.584568 -0.36701 4.15 -0.584568 -0.346925 
4.15 -0.584568 -0.324774 4.15 -0.584568 -0.300497 4.15 -0.584568 -0.274072 
4.15 -0.579088 -0.5 4.15 -0.579088 -0.497 4.15 -0.579088 -0.493548 
4.15 -0.579088 -0.489579 4.15 -0.579088 -0.485022 4.15 -0.579088 -0.479796 
4.15 -0.579088 -0.473812 4.15 -0.579088 -0.466971 4.15 -0.579088 -0.459165 
4.15 -0.579088 -0.450279 4.15 -0.579088 -0.440188 4.15 -0.579088 -0.428762 
4.15 -0.579088 -0.415865 4.15 -0.579088 -0.401362 4.15 -0.579088 -0.385118 
4.15 -0.579088 -0.36701 4.15 -0.579088 -0.346925 4.15 -0.579088 -0.324774 
4.15 -0.579088 -0.300497 4.15 -0.579088 -0.274072 4.15 -0.573415 -0.5 
4.15 -0.573415 -0.497 4.15 -0.573415 -0.493548 4.15 -0.573415 -0.489579 
4.15 -0.573415 -0.485022 4.15 -0.573415 -0.479796 4.15 -0.573415 -0.473812 
4.15 -0.573415 -0.466971 4.15 -0.573415 -0.459165 4.15 -0.573415 -0.450279 
4.15 -0.573415 -0.440188 4.15 -0.573415 -0.428762 4.15 -0.573415 -0.415865 
4.15 -0.573415 -0.401362 4.15 -0.573415 -0.385118 4.15 -0.573415 -0.36701 
4.15 -0.573415 -0.346925 4.15 -0.573415 -0.324774 4.15 -0.573415 -0.300497 
4.15 -0.573415 -0.274072 4.15 -0.567565 -0.5 4.15 -0.567565 -0.497 
4.15 -0.567565 -0.493548 4.15 -0.567565 -0.489579 4.15 -0.567565 -0.485022 
4.15 -0.567565 -0.479796 4.15 -0.567565 -0.473812 4.15 -0.567565 -0.466971 
4.15 -0.567565 -0.459165 4.15 -0.567565 -0.450279 4.15 -0.567565 -0.440188 
4.15 -0.567565 -0.428762 4.15 -0.567565 -0.415865 4.15 -0.567565 -0.401362 
4.15 -0.567565 -0.385118 4.15 -0.567565 -0.36701 4.15 -0.567565 -0.346925 
4.15 -0.567565 -0.324774 4.15 -0.567565 -0.300497 4.15 -0.567565 -0.274072 
4.15 -0.561558 -0.5 4.15 -0.561558 -0.497 4.15 -0.561558 -0.493548 
4.15 -0.561558 -0.489579 4.15 -0.561558 -0.485022 4.15 -0.561558 -0.479796 
4.15 -0.561558 -0.473812 4.15 -0.561558 -0.466971 4.15 -0.561558 -0.459165 
4.15 -0.561558 -0.450279 4.15 -0.561558 -0.440188 4.15 -0.561558 -0.428762 
4.15 -0.561558 -0.415865 4.15 -0.561558 -0.401362 4.15 -0.561558 -0.385118 
4.15 -0.561558 -0.36701 4.15 -0.561558 -0.346925 4.15 -0.561558 -0.324774 
4.15 -0.561558 -0.300497 4.15 -0.561558 -0.274072 4.15 -0.555416 -0.5 
4.15 -0.555416 -0.497 4.15 -0.555416 -0.493548 4.15 -0.555416 -0.489579 
4.15 -0.555416 -0.485022 4.15 -0.555416 -0.479796 4.15 -0.555416 -0.473812 
4.15 -0.555416 -0.466971 4.15 -0.555416 -0.459165 4.15 -0.555416 -0.450279 
4.15 -0.555416 -0.440188 4.15 -0.555416 -0.428762 4.15 -0.555416 -0.415865 
4.15 -0.555416 -0.401362 4.15 -0.555416 -0.385118 4.15 -0.555416 -0.36701 
4.15 -0.555416 -0.346925 4.15 -0.555416 -0.324774 4.15 -0.555416 -0.300497 
4.15 -0.555416 -0.274072 4.15 -0.549162 -0.5 4.15 -0.549162 -0.497 
4.15 -0.549162 -0.493548 4.15 -0.549162 -0.489579 4.15 -0.549162 -0.485022 
4.15 -0.549162 -0.479796 4.15 -0.549162 -0.473812 4.15 -0.549162 -0.466971 
4.15 -0.549162 -0.459165 4.15 -0.549162 -0.450279 4.15 -0.549162 -0.440188 
4.15 -0.549162 -0.428762 4.15 -0.549162 -0.415865 4.15 -0.549162 -0.401362 
4.15 -0.549162 -0.385118 4.15 -0.549162 -0.36701 4.15 -0.549162 -0.346925 
4.15 -0.549162 -0.324774 4.15 -0.549162 -0.300497 4.15 -0.549162 -0.274072 
4.15 -0.542823 -0.5 4.15 -0.542823 -0.497 4.15 -0.542823 -0.493548 
4.15 -0.542823 -0.489579 4.15 -0.542823 -0.485022 4.15 -0.542823 -0.479796 
4.15 -0.542823 -0.473812 4.15 -0.542823 -0.466971 4.15 -0.542823 -0.459165 
4.15 -0.542823 -0.450279 4.15 -0.542823 -0.440188 4.15 -0.542823 -0.428762 
4.15 -0.542823 -0.415865 4.15 -0.542823 -0.401362 4.15 -0.542823 -0.385118 
4.15 -0.542823 -0.36701 4.15 -0.542823 -0.346925 4.15 -0.542823 -0.324774 
4.15 -0.542823 -0.300497 4.15 -0.542823 -0.274072 4.15 -0.536426 -0.5 
4.15 -0.536426 -0.497 4.15 -0.536426 -0.493548 4.15 -0.536426 -0.489579 
4.15 -0.536426 -0.485022 4.15 -0.536426 -0.479796 4.15 -0.536426 -0.473812 
4.15 -0.536426 -0.466971 4.15 -0.536426 -0.459165 4.15 -0.536426 -0.450279 
4.15 -0.536426 -0.440188 4.15 -0.536426 -0.428762 4.15 -0.536426 -0.415865 
4.15 -0.536426 -0.401362 4.15 -0.536426 -0.385118 4.15 -0.536426 -0.36701 
4.15 -0.536426 -0.346925 4.15 -0.536426 -0.324774 4.15 -0.536426 -0.300497 
4.15 -0.536426 -0.274072 4.15 -0.53 -0.5 4.15 -0.53 -0.497 
[...]
POINT_DATA 36080
FIELD FieldData 5
pressure 1 36080 float
0.178573 0.178573 0.178573 0.178573 0.178573 0.178573 0.178573 0.178573 0.178573 
0.178573 0.178573 0.178573 0.178573 0.178573 0.178573 0.178573 0.178573 0.178573 
0.178573 0.178573 0.178573 0.178573 0.178573 0.178573 0.178573 0.178573 0.178573 
0.178573 0.178573 0.178573 0.178573 0.178573 0.178573 0.178573 0.178573 0.178573 
0.178573 0.178573 0.178573 0.178573 0.178573 0.178573 0.178573 0.178573 0.178573 
0.178573 0.178573 0.178573 0.178573 0.178573 0.178573 0.178573 0.178573 0.178573 
0.178573 0.178573 0.178573 0.178573 0.178573 0.178573 0.178573 0.178573 0.178573 
0.178573 0.178573 0.178573 0.178573 0.178573 0.178573 0.178573 0.178573 0.178573 
0.178573 0.178573 0.178573 0.178573 0.178573 0.178573 0.178573 0.178573 0.178573 
0.178573 0.178573 0.178573 0.178573 0.178573 0.178573 0.178573 0.178573 0.178573 
0.178573 0.178573 0.178573 0.178573 0.178573 0.178573 0.178573 0.178573 0.178573 
0.178573 0.178573 0.178573 0.178573 0.178573 0.178573 0.178573 0.178573 0.178573 
0.178573 0.178573 0.178573 0.178573 0.178573 0.178573 0.178573 0.178573 0.178573 
0.178573 0.178573 0.178573 0.178573 0.178573 0.178573 0.178573 0.178573 0.178573 
0.178573 0.178573 0.178573 0.178573 0.178573 0.178573 0.178573 0.178573 0.178573 
0.178573 0.178573 0.178573 0.178573 0.178573 0.178573 0.178573 0.178573 0.178573 
0.178573 0.178573 0.178573 0.178573 0.178573 0.178573 0.178573 0.178573 0.178573 
0.178573 0.178573 0.178573 0.178573 0.178573 0.178573 0.178573 0.178573 0.178573 
0.178573 0.178573 0.178573 0.178573 0.178573 0.178573 0.178573 0.178573 0.178573 
0.178573 0.178573 0.178573 0.178573 0.178573 0.178573 0.178573 0.178573 0.178573 
0.178573 0.178573 0.178573 0.178573 0.178573 0.178573 0.178573 0.178573 0.178573 
0.178573 0.178573 0.178573 0.178573 0.178573 0.178573 0.178573 0.178573 0.178573 
0.178573 0.178573 0.178573 0.178573 0.178573 0.178573 0.178573 0.178573 0.178573 
0.178573 0.178573 0.178573 0.178573 0.178573 0.178573 0.178573 0.178573 0.178573 
0.178573 0.178573 0.178573 0.178573 0.178573 0.178573 0.178573 0.178573 0.178573 
0.178573 0.178573 0.178573 0.178573 0.178573 0.178573 0.178573 0.178573 0.178573 
0.178573 0.178573 0.178573 0.178573 0.178573 0.178573 0.178573 0.178573 0.178573 
0.178573 0.178573 0.178573 0.178573 0.178573 0.178573 0.178573 0.178573 0.178573 
0.178573 0.178573 0.178573 0.178573 0.178573 0.178573 0.178573 0.178573 0.178573 
0.178573 0.178573 0.178573 0.178573 0.178573 0.178573 0.178573 0.178573 0.178573 
0.178573 0.178573 0.178573 0.178573 0.178573 0.178573 0.178573 0.178573 0.178573 
0.178573 0.178573 0.178573 0.178573 0.178573 0.178573 0.178573 0.178573 0.178573 
0.178573 0.178573 0.178573 0.178573 0.178573 0.178573 0.178573 0.178573 0.178573 
0.178573 0.178573 0.178573 0.178573 0.178573 0.178573 0.178573 0.178573 0.178573 
0.178573 0.178573 0.178573 0.178573 0.178573 0.178573 0.178573 0.178573 0.178573 
0.178573 0.178573 0.178573 0.178573 0.178573 0.178573 0.178573 0.178573 0.178573 
0.178573 0.178573 0.178573 0.178573 0.178573 0.178573 0.178573 0.178573 0.178573 
0.178573 0.178573 0.178573 0.178573 0.178573 0.178573 0.178573 0.178573 0.178573 
0.178573 0.178573 0.178573 0.178573 0.178573 0.178573 0.178573 0.178573 0.178573 
0.178573 0.178573 0.178573 0.178573 0.178573 0.178573 0.178573 0.178573 0.178573 
0.178573 0.178573 0.178573 0.178573 0.178573 0.178573 0.178573 0.178573 0.178573 
0.178573 0.178573 0.178573 0.178573 0.178573 0.178573 0.178573 0.178573 0.178573 
0.178573 0.178573 0.178573 0.178573 0.178573 0.178573 0.178573 0.178573 0.178573 
0.178573 0.178573 0.178573 0.178573 0.178573 0.178573 0.178573 0.178573 0.178573 
0.178573 0.178573 0.178573 0.178573 0.178573 0.178573 0.178573 0.178573 0.178573 
0.178573 0.178573 0.178573 0.178573 0.178573 0.178573 0.178573 0.178573 0.178573 
0.178573 0.178573 0.178573 0.178573 0.178573 0.178573 0.178573 0.178573 0.178573 
0.178573 0.178573 0.178573 0.178573 0.178573 0.178573 0.178573 0.178573 0.178573 
0.178573 0.178573 0.178573 0.178573 0.178573 0.178573 0.178573 0.178573 0.178573 
0.178573 0.178573 0.178573 0.178573 0.178573 0.178573 0.178573 0.178573 0.178573 
0.178573 0.178573 0.178573 0.178573 0.178573 0.178573 0.178573 0.178573 0.178573 
0.178573 0.178573 0.178573 0.178573 0.178573 0.178573 0.178573 0.178573 0.178573 
0.178573 0.178573 0.178573 0.178573 0.178573 0.178573 0.178573 0.178573 0.178573 
0.178573 0.178573 0.178573 0.178573 0.178573 0.178573 0.178573 0.178573 0.178573 
0.178573 0.178573 0.178573 0.178573 0.178573 0.178573 0.178573 0.178573 0.178573 
0.178573 0.178573 0.178573 0.178573 0.178573 0.178573 0.178573 0.178573 0.178573 
0.178573 0.178573 0.178573 0.178573 0.178573 0.178573 0.178573 0.178573 0.178573 
0.178573 0.178573 0.178573 0.178573 0.178573 0.178573 0.178573 0.178573 0.178573 
0.178573 0.178573 0.178573 0.178573 0.178573 0.178573 0.178573 0.178573 0.178573 
0.178573 0.178573 0.178573 0.178573 0.178573 0.178573 0.178573 0.178573 0.178573 
0.178573 0.178573 0.178573 0.178573 0.178573 0.178573 0.178573 0.178573 0.178573 
0.178573 0.178573 0.178573 0.178573 0.178573 0.178573 0.178573 0.178573 0.178573 
0.178573 0.178573 0.178573 0.178573 0.178573 0.178573 0.178573 0.178573 0.178573 
0.178573 0.178573 0.178573 0.178573 0.178573 0.178573 0.178573 0.178573 0.178573 
0.178573 0.178573 0.178573 0.178573 0.178573 0.178573 0.178573 0.178573 0.178573 
0.178573 0.178573 0.178573 0.178573 0.178573 0.178573 0.178573 0.178573 0.178573 
0.178573 0.178573 0.178573 0.178573 0.178573 0.178573 0.178573 0.178573 0.178573 
0.178573 0.178573 0.178573 0.178573 0.178573 0.178573 0.178573 0.178573 0.178573 
0.178573 0.178573 0.178573 0.178573 0.178573 0.178573 0.178573 0.178573 0.178573 
0.178573 0.178573 0.178573 0.178573 0.178573 0.178573 0.178573 0.178573 0.178573 
0.178573 0.178573 0.178573 0.178573 0.178573 0.178573 0.178573 0.178573 0.178573 
0.178573 0.178573 0.178573 0.178573 0.178573 0.178573 0.178573 0.178573 0.178573 
0.178573 0.178573 0.178573 0.178573 0.178573 0.178573 0.178573 0.178573 0.178573 
0.178573 0.178573 0.178573 0.178573 0.178573 0.178573 0.178573 0.178573 0.178573 
0.178573 0.178573 0.178573 0.178573 0.178573 0.178573 0.178573 0.178573 0.178573 
0.178573 0.178573 0.178573 0.178573 0.178573 0.178573 0.178573 0.178573 0.178573 
0.178573 0.178573 0.178573 0.178573 0.178573 0.178573 0.178573 0.178573 0.178573 
0.178573 0.178573 0.178573 0.178573 0.178573 0.178573 0.178573 0.178573 0.178573 
0.178573 0.178573 0.178573 0.178573 0.178573 0.178573 0.178573 0.178573 0.178573 
0.178573 0.178573 0.178573 0.178573 0.178573 0.178573 0.178573 0.178573 0.178573 
0.178573 0.178573 0.178573 0.178573 0.178573 0.178573 0.178573 0.178573 0.178573 
0.178573 0.178573 0.178573 0.178573 0.178573 0.178573 0.178573 0.178573 0.178573 
0.178573 0.178573 0.178573 0.178573 0.178573 0.178573 0.178573 0.178573 0.178573 
0.178573 0.178573 0.178573 0.178573 0.178573 0.178573 0.178573 0.178573 0.178573 
0.178573 0.178573 0.178573 0.178573 0.178573 0.178573 0.178573 0.178573 0.178573 
0.178573 0.178573 0.178573 0.178573 0.178573 0.178573 0.178573 0.178573 0.178573 
0.178573 0.178573 0.178573 0.178573 0.178573 0.178573 0.178573 0.178573 0.178573 
0.178573 0.178573 0.178573 0.178573 0.178573 0.178573 0.178573 0.178573 0.178573 
0.178573 0.178573 0.178573 0.178573 0.178573 0.178573 0.178573 0.178573 0.178573 
0.178573 0.178573 0.178573 0.178573 0.178573 0.178573 0.178573 0.178573 0.178573 
0.178573 0.178573 0.178573 0.178573 0.178573 0.178573 0.178573 0.178573 0.178573 
0.178573 0.178573 0.179654 0.179742 0.179748 0.179763 0.179779 0.179772 0.179785 
0.179775 0.179788 0.179781 0.179796 0.179794 0.179812 0.179809 0.179827 0.179824 
0.179835 0.179835 0.179802 0.179654 0.179654 0.179742 0.179748 0.179763 0.179779 
0.179772 0.179785 0.179775 0.179788 0.179781 0.179796 0.179794 0.179812 0.179809 
0.179827 0.179824 0.179835 0.179835 0.179802 0.179715 0.179715 0.179801 0.179806 
0.179814 0.179822 0.17983 0.179835 0.17984 0.179841 0.179847 0.179849 0.179856 
0.179863 0.17987 0.179876 0.179884 0.179883 0.179893 0.179852 0.179737 0.179737 
0.179795 0.179812 0.179822 0.179833 0.179836 0.179845 0.179843 0.179853 0.179847 
0.17986 0.179855 0.179872 0.17987 0.179885 0.179885 0.179891 0.179896 0.17986 
0.17974 0.17974 0.179814 0.179818 0.17985 0.179835 0.179866 0.179846 0.179875 
0.17985 0.179879 0.179854 0.179887 0.179866 0.179902 0.179881 0.179914 0.17989 
0.179926 0.179861 0.179762 0.179762 0.179813 0.179851 0.179837 0.179875 0.179849 
0.179885 0.179853 0.179887 0.179852 0.179882 0.179857 0.179886 0.179871 0.179906 
0.179889 0.179927 0.179905 0.179894 0.179758 0.179758 0.179822 0.179831 0.179857 
0.17985 0.179871 0.179857 0.179876 0.179855 0.179872 0.179853 0.179871 0.179864 
0.179888 0.179884 0.179918 0.1799 0.179933 0.179872 0.179778 0.179778 0.179827 
0.179852 0.17985 0.179872 0.17986 0.17988 0.179859 0.179879 0.179852 0.179873 
0.179856 0.179884 0.179877 0.179916 0.179902 0.179935 0.17992 0.179901 0.179774 
0.179774 0.179836 0.179844 0.179869 0.179859 0.179882 0.179864 0.179883 0.179857 
0.179876 0.179854 0.179878 0.179871 0.17991 0.179899 0.179943 0.179917 0.179954 
0.179886 0.179791 0.179791 0.179834 0.179859 0.179857 0.179879 0.179866 0.179886 
0.179862 0.179883 0.179853 0.179879 0.17986 0.179904 0.179891 0.179942 0.17992 
0.179958 0.179936 0.179919 0.179786 0.179786 0.179842 0.179846 0.179873 0.179861 
0.179888 0.179864 0.179889 0.179855 0.179884 0.179855 0.179897 0.179881 0.179937 
0.179915 0.179968 0.179933 0.179974 0.179899 0.179798 0.179798 0.179833 0.179858 
0.179854 0.179882 0.179863 0.179893 0.179859 0.179892 0.179854 0.179896 0.179871 
0.179931 0.179905 0.179966 0.179936 0.179979 0.179951 0.179936 0.179797 0.179797 
0.179841 0.179843 0.179872 0.179857 0.179892 0.179861 0.179899 0.179858 0.179899 
0.179868 0.179924 0.179894 0.179958 0.179929 0.179988 0.179946 0.179991 0.179911 
0.179801 0.179801 0.179839 0.179856 0.179853 0.179883 0.179863 0.179899 0.179864 
0.179905 0.179871 0.179922 0.179885 0.179947 0.179917 0.179982 0.179948 0.179995 
0.179962 0.17995 0.179806 0.179806 0.17985 0.179853 0.179874 0.179864 0.179895 
0.179871 0.179908 0.17988 0.179927 0.179887 0.179937 0.179906 0.179968 0.179937 
0.180001 0.179955 0.180004 0.179921 0.179824 0.179824 0.179859 0.179874 0.179874 
0.179897 0.179886 0.179912 0.179894 0.179931 0.179897 0.179939 0.179905 0.179951 
0.179926 0.179985 0.179954 0.180003 0.179971 0.179959 0.179826 0.179826 0.179877 
0.179881 0.179907 0.179901 0.179926 0.179914 0.179941 0.179916 0.179946 0.179917 
0.179951 0.179927 0.179964 0.179945 0.179999 0.179962 0.18001 0.179931 0.179849 
0.179849 0.179885 0.179913 0.179911 0.179943 0.179934 0.179961 0.179942 0.179964 
0.17994 0.179961 0.17994 0.179967 0.179951 0.179978 0.179965 0.179999 0.17998 
0.179964 0.179838 0.179838 0.179902 0.179904 0.179949 0.179939 0.179978 0.179958 
0.179988 0.179964 0.179986 0.179963 0.179982 0.179968 0.179989 0.179977 0.179994 
0.179977 0.180009 0.179947 0.179864 0.179864 0.179899 0.179937 0.179932 0.179981 
0.179962 0.180004 0.179977 0.180012 0.17998 0.18001 0.179983 0.180011 0.179994 
0.180018 0.180002 0.180008 0.179999 0.179977 0.179846 0.179846 0.17991 0.179913 
0.179966 0.179952 0.180003 0.179977 0.180022 0.179986 0.180029 0.17999 0.18003 
0.179999 0.180038 0.180012 0.180045 0.180009 0.180025 0.179966 0.17987 0.17987 
0.179902 0.179941 0.179936 0.179989 0.179968 0.180016 0.179985 0.180029 0.179989 
0.180033 0.179994 0.180038 0.180007 0.180049 0.180016 0.180041 0.180014 0.179985 
0.179847 0.179847 0.179907 0.179909 0.179961 0.179948 0.179997 0.179973 0.180015 
0.179983 0.18002 0.179986 0.18002 0.179994 0.180028 0.180004 0.180035 0.180002 
0.18003 0.179961 0.179862 0.179862 0.179891 0.179925 0.179921 0.179969 0.179951 
0.179993 0.179967 0.180001 0.179972 0.18 0.179975 0.180004 0.179985 0.180012 
0.179994 0.180013 0.179999 0.179978 0.179839 0.179839 0.179889 0.17989 0.17993 
0.17992 0.179961 0.179942 0.179978 0.179953 0.179983 0.179957 0.179985 0.179965 
0.179996 0.179977 0.180012 0.179983 0.18002 0.17995 0.179846 0.179846 0.179871 
0.17989 0.179888 0.179924 0.179911 0.179949 0.179927 0.179965 0.179936 0.179973 
0.179944 0.179985 0.179959 0.180004 0.179976 0.180018 0.179988 0.179975 0.179831 
0.179831 0.179865 0.179862 0.179887 0.17988 0.179917 0.179899 0.179941 0.179913 
0.179959 0.179924 0.179972 0.179941 0.179993 0.179963 0.18002 0.179977 0.180022 
0.179941 0.179827 0.179827 0.17985 0.179863 0.179859 0.17989 0.179874 0.179916 
0.179888 0.179939 0.179902 0.179958 0.179919 0.179978 0.179945 0.180008 0.179971 
0.180018 0.179982 0.179971 0.179822 0.179822 0.179851 0.179846 0.17987 0.179859 
0.179895 0.179869 0.179915 0.17988 0.179935 0.179897 0.179957 0.179925 0.179988 
0.179956 0.180016 0.17997 0.180014 0.179933 0.179829 0.179829 0.179847 0.179859 
0.179852 0.179881 0.179863 0.179899 0.179866 0.179911 0.179874 0.179931 0.179898 
0.179964 0.179934 0.179998 0.179963 0.180007 0.179973 0.179961 0.179823 0.179823 
0.179853 0.179849 0.179868 0.179859 0.179886 0.179864 0.179894 0.179862 0.179902 
0.179874 0.179931 0.179908 0.179971 0.179943 0.179999 0.179958 0.179999 0.179923 
0.179835 0.179835 0.179851 0.179863 0.179858 0.179877 0.179865 0.179886 0.179863 
0.179888 0.179859 0.179898 0.179878 0.179937 0.179916 0.179975 0.179947 0.179987 
0.179961 0.179945 0.179825 0.179825 0.179856 0.179852 0.17987 0.179864 0.179879 
0.179867 0.179882 0.179862 0.179879 0.179862 0.179897 0.179889 0.179941 0.179923 
0.179974 0.179942 0.179979 0.179912 0.179835 0.179835 0.179845 0.179862 0.179858 
0.179874 0.179868 0.179879 0.179868 0.179878 0.179861 0.179876 0.179869 0.179901 
0.179899 0.179942 0.179929 0.179961 0.179947 0.179926 0.179824 0.179824 0.179849 
0.179847 0.179866 0.179861 0.179875 0.17987 0.179878 0.179868 0.179875 0.179867 
0.179875 0.179882 0.179906 0.179909 0.179942 0.179928 0.179957 0.179903 0.179832 
0.179832 0.179838 0.179854 0.179849 0.179868 0.179861 0.179877 0.179867 0.179878 
0.179868 0.179876 0.179876 0.179885 0.179894 0.179913 0.179917 0.179936 0.179936 
0.179909 0.179821 0.179821 0.179834 0.179835 0.179844 0.179846 0.179858 0.179855 
0.179865 0.179861 0.179865 0.179868 0.179871 0.179883 0.179887 0.179899 0.179911 
0.179912 0.179931 0.179892 0.179824 0.179824 0.179825 0.179815 0.179834 0.179821 
0.179844 0.17983 0.179852 0.179837 0.179858 0.179843 0.17987 0.179856 0.179888 
0.179868 0.179905 0.179879 0.179919 0.179861 0.179819 0.179819 0.179812 0.179818 
0.179824 0.179826 0.179835 0.179835 0.179845 0.179843 0.179855 0.179852 0.179867 
0.179869 0.179884 0.179887 0.179897 0.179896 0.179905 0.179873 0.179823 0.179823 
0.179814 0.179827 0.179818 0.179835 0.179828 0.179845 0.179836 0.179855 0.179845 
0.179866 0.179859 0.179881 0.179876 0.179896 0.179889 0.179901 0.179899 0.179872 
0.179848 0.179848 0.179824 0.179816 0.179821 0.179819 0.179829 0.179826 0.179836 
0.179834 0.179845 0.179847 0.17986 0.179864 0.179877 0.179879 0.179892 0.179888 
0.179901 0.179868 0.178573 0.180283 0.180349 0.18036 0.180383 0.180379 0.180396 
0.18039 0.1804 0.180395 0.1804 0.180398 0.1804 0.180397 0.1804 0.180393 
0.180399 0.180385 0.180388 0.180338 0.180283 0.180283 0.180349 0.18036 0.180383 
0.180379 0.180396 0.18039 0.1804 0.180395 0.1804 0.180398 0.1804 0.180397 
0.1804 0.180393 0.180399 0.180385 0.180388 0.180338 0.180348 0.180348 0.18042 
0.180446 0.18046 0.18047 0.180474 0.180479 0.180476 0.180476 0.180471 0.18047 
0.180467 0.180468 0.180465 0.180464 0.18046 0.180454 0.180453 0.18041 0.180355 
0.180355 0.180442 0.18046 0.180487 0.180484 0.180499 0.180492 0.180501 0.180485 
0.18049 0.180475 0.180483 0.180472 0.180481 0.180466 0.180475 0.180461 0.18047 
0.18042 0.180376 0.180376 0.180454 0.180487 0.180497 0.18051 0.180509 0.180516 
0.180504 0.180509 0.180485 0.180492 0.180474 0.180485 0.180472 0.180478 0.180476 
0.180477 0.180478 0.180437 0.180386 0.180386 0.180474 0.180501 0.180519 0.180522 
0.180534 0.180525 0.180532 0.180512 0.180512 0.180494 0.180491 0.180486 0.180485 
0.180492 0.180493 0.180499 0.180497 0.180454 0.1804 0.1804 0.180471 0.180504 
0.180513 0.180524 0.180517 0.18052 0.180505 0.1805 0.180481 0.180471 0.180466 
0.180459 0.18047 0.180478 0.180484 0.180493 0.180488 0.180449 0.180402 0.180402 
0.180486 0.180504 0.180525 0.18052 0.180526 0.180515 0.180509 0.180491 0.180478 
0.180466 0.180453 0.180464 0.180475 0.180482 0.180508 0.180493 0.18051 0.180449 
0.180418 0.180418 0.180486 0.180516 0.18052 0.180527 0.18052 0.180515 0.1805 
0.180489 0.180468 0.180458 0.180455 0.18047 0.180475 0.18051 0.180499 0.180524 
0.180502 0.18047 0.180418 0.180418 0.180495 0.180509 0.180525 0.18052 0.180522 
0.180509 0.180503 0.180477 0.180471 0.180453 0.180466 0.180466 0.180506 0.180496 
0.180538 0.180509 0.180533 0.18046 0.180431 0.180431 0.180492 0.180513 0.180517 
0.180524 0.180514 0.180516 0.180489 0.180491 0.180457 0.180472 0.180457 0.1805 
0.180489 0.180538 0.180516 0.180548 0.180517 0.180489 0.180434 0.180434 0.180496 
0.180505 0.180521 0.180513 0.180525 0.1805 0.180511 0.18047 0.180487 0.180459 
0.180495 0.18048 0.180531 0.180514 0.180561 0.180526 0.180553 0.180474 0.180432 
0.180432 0.180491 0.180509 0.180512 0.180526 0.180508 0.180526 0.180486 0.180508 
0.180468 0.180502 0.180472 0.180521 0.180503 0.180558 0.180532 0.180568 0.180532 
0.180506 0.18044 0.18044 0.180497 0.180509 0.180522 0.180514 0.180531 0.180503 
0.180524 0.180487 0.180516 0.180478 0.180514 0.180493 0.180544 0.180525 0.180577 
0.180539 0.18057 0.180486 0.180448 0.180448 0.180506 0.180519 0.180525 0.180532 
0.18052 0.180534 0.180508 0.180532 0.180494 0.180522 0.180491 0.180529 0.180512 
0.180567 0.18054 0.180583 0.180543 0.18052 0.180475 0.180475 0.180528 0.180535 
0.180544 0.180544 0.180549 0.180538 0.180546 0.180523 0.180534 0.180507 0.180523 
0.180509 0.180542 0.180531 0.180582 0.180547 0.180581 0.180498 0.180493 0.180493 
0.180546 0.180562 0.18057 0.180576 0.180576 0.180573 0.180564 0.180558 0.180539 
0.180537 0.180522 0.180531 0.180527 0.180556 0.180546 0.180583 0.180553 0.180528 
0.180502 0.180502 0.180574 0.180585 0.180607 0.18061 0.180613 0.180611 0.180597 
0.18059 0.180569 0.180561 0.180543 0.180547 0.180545 0.180551 0.180565 0.180556 
0.18058 0.180514 0.180526 0.180526 0.180584 0.180622 0.180625 0.180648 0.180644 
0.180643 0.180637 0.180619 0.18061 0.180585 0.180585 0.180564 0.180578 0.180567 
0.180575 0.180568 0.180569 0.180532 0.180521 0.180521 0.180609 0.180619 0.180661 
0.180655 0.180677 0.180664 0.180665 0.18065 0.180637 0.180625 0.180604 0.180613 
0.180595 0.180611 0.180594 0.180596 0.18058 0.18054 0.180545 0.180545 0.180601 
0.18065 0.180649 0.180686 0.180673 0.180691 0.18067 0.180675 0.180649 0.180647 
0.18063 0.180626 0.180627 0.180625 0.180623 0.180608 0.1806 0.18054 0.180527 
0.180527 0.180616 0.180625 0.180672 0.180663 0.180693 0.180674 0.180687 0.180662 
0.180665 0.180638 0.180636 0.180626 0.180628 0.180623 0.180626 0.180606 0.180594 
0.180548 0.18054 0.18054 0.180595 0.18064 0.180639 0.180676 0.180662 0.180678 
0.180659 0.180659 0.180637 0.180627 0.180615 0.180605 0.180609 0.180604 0.180603 
0.180589 0.180588 0.180548 0.180516 0.180516 0.180594 0.180602 0.180639 0.180633 
0.180653 0.180641 0.18064 0.180625 0.180612 0.180599 0.180582 0.180585 0.180576 
0.180584 0.180579 0.18058 0.180589 0.180535 0.180517 0.180517 0.180568 0.180594 
0.180597 0.180613 0.180611 0.180614 0.180603 0.180596 0.180581 0.180571 0.180562 
0.18056 0.180561 0.18057 0.180571 0.180592 0.180573 0.180542 0.180499 0.180499 
0.180555 0.180561 0.180573 0.180573 0.18058 0.180573 0.180579 0.180561 0.180566 
0.180545 0.180553 0.180542 0.180562 0.180556 0.180598 0.180569 0.180599 0.18052 
0.180482 0.180482 0.18053 0.18054 0.180545 0.18055 0.180545 0.180555 0.180539 
0.18056 0.18053 0.180552 0.180525 0.180554 0.18054 0.18059 0.180566 0.180607 
0.180568 0.180542 0.180474 0.180474 0.180515 0.180521 0.18053 0.180525 0.180542 
0.180519 0.180544 0.180513 0.180548 0.18051 0.180545 0.180523 0.180574 0.180553 
0.180608 0.180567 0.180598 0.180512 0.180453 0.180453 0.180501 0.18051 0.180514 