# vtk DataFile Version 5.1
vtk output
ASCII
DATASET STRUCTURED_GRID
DIMENSIONS 13 12 20
POINTS 3120 float
1.86853 0.915359 0.55 1.86853 0.915359 0.553 1.86853 0.915359 0.55609 
1.86853 0.915359 0.559363 1.86853 0.915359 0.562918 1.86853 0.915359 0.566862 
1.86853 0.915359 0.571312 1.86853 0.915359 0.576403 1.86853 0.915359 0.582287 
1.86853 0.915359 0.589143 1.86853 0.915359 0.597175 1.86853 0.915359 0.606626 
1.86853 0.915359 0.617779 1.87853 0.915359 0.55 1.87853 0.915359 0.553 
1.87853 0.915359 0.55609 1.87853 0.915359 0.559363 1.87853 0.915359 0.562918 
1.87853 0.915359 0.566862 1.87853 0.915359 0.571312 1.87853 0.915359 0.576403 
1.87853 0.915359 0.582287 1.87853 0.915359 0.589143 1.87853 0.915359 0.597175 
1.87853 0.915359 0.606626 1.87853 0.915359 0.617779 1.88973 0.915359 0.55 
1.88973 0.915359 0.553 1.88973 0.915359 0.55609 1.88973 0.915359 0.559363 
1.88973 0.915359 0.562918 1.88973 0.915359 0.566862 1.88973 0.915359 0.571312 
1.88973 0.915359 0.576403 1.88973 0.915359 0.582287 1.88973 0.915359 0.589143 
1.88973 0.915359 0.597175 1.88973 0.915359 0.606626 1.88973 0.915359 0.617779 
1.90348 0.915359 0.55 1.90348 0.915359 0.553 1.90348 0.915359 0.55609 
1.90348 0.915359 0.559363 1.90348 0.915359 0.562918 1.90348 0.915359 0.566862 
1.90348 0.915359 0.571312 1.90348 0.915359 0.576403 1.90348 0.915359 0.582287 
1.90348 0.915359 0.589143 1.90348 0.915359 0.597175 1.90348 0.915359 0.606626 
1.90348 0.915359 0.617779 1.92143 0.915359 0.55 1.92143 0.915359 0.553 
1.92143 0.915359 0.55609 1.92143 0.915359 0.559363 1.92143 0.915359 0.562918 
1.92143 0.915359 0.566862 1.92143 0.915359 0.571312 1.92143 0.915359 0.576403 
1.92143 0.915359 0.582287 1.92143 0.915359 0.589143 1.92143 0.915359 0.597175 
1.92143 0.915359 0.606626 1.92143 0.915359 0.617779 1.94574 0.915359 0.55 
1.94574 0.915359 0.553 1.94574 0.915359 0.55609 1.94574 0.915359 0.559363 
1.94574 0.915359 0.562918 1.94574 0.915359 0.566862 1.94574 0.915359 0.571312 
1.94574 0.915359 0.576403 1.94574 0.915359 0.582287 1.94574 0.915359 0.589143 
1.94574 0.915359 0.597175 1.94574 0.915359 0.606626 1.94574 0.915359 0.617779 
1.97933 0.915359 0.55 1.97933 0.915359 0.553 1.97933 0.915359 0.55609 
1.97933 0.915359 0.559363 1.97933 0.915359 0.562918 1.97933 0.915359 0.566862 
1.97933 0.915359 0.571312 1.97933 0.915359 0.576403 1.97933 0.915359 0.582287 
1.97933 0.915359 0.589143 1.97933 0.915359 0.597175 1.97933 0.915359 0.606626 
1.97933 0.915359 0.617779 2.02623 0.915359 0.55 2.02623 0.915359 0.553 
2.02623 0.915359 0.55609 2.02623 0.915359 0.559363 2.02623 0.915359 0.562918 
2.02623 0.915359 0.566862 2.02623 0.915359 0.571312 2.02623 0.915359 0.576403 
2.02623 0.915359 0.582287 2.02623 0.915359 0.589143 2.02623 0.915359 0.597175 
2.02623 0.915359 0.606626 2.02623 0.915359 0.617779 2.09209 0.915359 0.55 
2.09209 0.915359 0.553 2.09209 0.915359 0.55609 2.09209 0.915359 0.559363 
2.09209 0.915359 0.562918 2.09209 0.915359 0.566862 2.09209 0.915359 0.571312 
2.09209 0.915359 0.576403 2.09209 0.915359 0.582287 2.09209 0.915359 0.589143 
2.09209 0.915359 0.597175 2.09209 0.915359 0.606626 2.09209 0.915359 0.617779 
2.18481 0.915359 0.55 2.18481 0.915359 0.553 2.18481 0.915359 0.55609 
2.18481 0.915359 0.559363 2.18481 0.915359 0.562918 2.18481 0.915359 0.566862 
2.18481 0.915359 0.571312 2.18481 0.915359 0.576403 2.18481 0.915359 0.582287 
2.18481 0.915359 0.589143 2.18481 0.915359 0.597175 2.18481 0.915359 0.606626 
2.18481 0.915359 0.617779 2.31554 0.915359 0.55 2.31554 0.915359 0.553 
2.31554 0.915359 0.55609 2.31554 0.915359 0.559363 2.31554 0.915359 0.562918 
2.31554 0.915359 0.566862 2.31554 0.915359 0.571312 2.31554 0.915359 0.576403 
2.31554 0.915359 0.582287 2.31554 0.915359 0.589143 2.31554 0.915359 0.597175 
2.31554 0.915359 0.606626 2.31554 0.915359 0.617779 2.5 0.915359 0.55 
2.5 0.915359 0.553 2.5 0.915359 0.55609 2.5 0.915359 0.559363 
2.5 0.915359 0.562918 2.5 0.915359 0.566862 2.5 0.915359 0.571312 
2.5 0.915359 0.576403 2.5 0.915359 0.582287 2.5 0.915359 0.589143 
2.5 0.915359 0.597175 2.5 0.915359 0.606626 2.5 0.915359 0.617779 
1.86758 0.919245 0.55 1.86758 0.919245 0.553 1.86758 0.919245 0.55609 
1.86758 0.919245 0.559363 1.86758 0.919245 0.562918 1.86758 0.919245 0.566862 
1.86758 0.919245 0.571312 1.86758 0.919245 0.576403 1.86758 0.919245 0.582287 
1.86758 0.919245 0.589143 1.86758 0.919245 0.597175 1.86758 0.919245 0.606626 
1.86758 0.919245 0.617779 1.87758 0.919294 0.55 1.87758 0.919294 0.553 
1.87758 0.919294 0.55609 1.87758 0.919294 0.559363 1.87758 0.919294 0.562918 
1.87758 0.919294 0.566862 1.87758 0.919294 0.571312 1.87758 0.919294 0.576403 
1.87758 0.919294 0.582287 1.87758 0.919294 0.589143 1.87758 0.919294 0.597175 
1.87758 0.919294 0.606626 1.87758 0.919294 0.617779 1.88878 0.919349 0.55 
1.88878 0.919349 0.553 1.88878 0.919349 0.55609 1.88878 0.919349 0.559363 
1.88878 0.919349 0.562918 1.88878 0.919349 0.566862 1.88878 0.919349 0.571312 
1.88878 0.919349 0.576403 1.88878 0.919349 0.582287 1.88878 0.919349 0.589143 
1.88878 0.919349 0.597175 1.88878 0.919349 0.606626 1.88878 0.919349 0.617779 
1.90253 0.919417 0.55 1.90253 0.919417 0.553 1.90253 0.919417 0.55609 
1.90253 0.919417 0.559363 1.90253 0.919417 0.562918 1.90253 0.919417 0.566862 
1.90253 0.919417 0.571312 1.90253 0.919417 0.576403 1.90253 0.919417 0.582287 
1.90253 0.919417 0.589143 1.90253 0.919417 0.597175 1.90253 0.919417 0.606626 
1.90253 0.919417 0.617779 1.92049 0.919505 0.55 1.92049 0.919505 0.553 
1.92049 0.919505 0.55609 1.92049 0.919505 0.559363 1.92049 0.919505 0.562918 
1.92049 0.919505 0.566862 1.92049 0.919505 0.571312 1.92049 0.919505 0.576403 
1.92049 0.919505 0.582287 1.92049 0.919505 0.589143 1.92049 0.919505 0.597175 
1.92049 0.919505 0.606626 1.92049 0.919505 0.617779 1.94481 0.919625 0.55 
1.94481 0.919625 0.553 1.94481 0.919625 0.55609 1.94481 0.919625 0.559363 
1.94481 0.919625 0.562918 1.94481 0.919625 0.566862 1.94481 0.919625 0.571312 
1.94481 0.919625 0.576403 1.94481 0.919625 0.582287 1.94481 0.919625 0.589143 
1.94481 0.919625 0.597175 1.94481 0.919625 0.606626 1.94481 0.919625 0.617779 
1.97843 0.919791 0.55 1.97843 0.919791 0.553 1.97843 0.919791 0.55609 
1.97843 0.919791 0.559363 1.97843 0.919791 0.562918 1.97843 0.919791 0.566862 
1.97843 0.919791 0.571312 1.97843 0.919791 0.576403 1.97843 0.919791 0.582287 
1.97843 0.919791 0.589143 1.97843 0.919791 0.597175 1.97843 0.919791 0.606626 
1.97843 0.919791 0.617779 2.02538 0.920022 0.55 2.02538 0.920022 0.553 
2.02538 0.920022 0.55609 2.02538 0.920022 0.559363 2.02538 0.920022 0.562918 
2.02538 0.920022 0.566862 2.02538 0.920022 0.571312 2.02538 0.920022 0.576403 
2.02538 0.920022 0.582287 2.02538 0.920022 0.589143 2.02538 0.920022 0.597175 
2.02538 0.920022 0.606626 2.02538 0.920022 0.617779 2.09131 0.920346 0.55 
2.09131 0.920346 0.553 2.09131 0.920346 0.55609 2.09131 0.920346 0.559363 
2.09131 0.920346 0.562918 2.09131 0.920346 0.566862 2.09131 0.920346 0.571312 
2.09131 0.920346 0.576403 2.09131 0.920346 0.582287 2.09131 0.920346 0.589143 
2.09131 0.920346 0.597175 2.09131 0.920346 0.606626 2.09131 0.920346 0.617779 
2.18417 0.920804 0.55 2.18417 0.920804 0.553 2.18417 0.920804 0.55609 
2.18417 0.920804 0.559363 2.18417 0.920804 0.562918 2.18417 0.920804 0.566862 
2.18417 0.920804 0.571312 2.18417 0.920804 0.576403 2.18417 0.920804 0.582287 
2.18417 0.920804 0.589143 2.18417 0.920804 0.597175 2.18417 0.920804 0.606626 
2.18417 0.920804 0.617779 2.31513 0.921449 0.55 2.31513 0.921449 0.553 
2.31513 0.921449 0.55609 2.31513 0.921449 0.559363 2.31513 0.921449 0.562918 
2.31513 0.921449 0.566862 2.31513 0.921449 0.571312 2.31513 0.921449 0.576403 
2.31513 0.921449 0.582287 2.31513 0.921449 0.589143 2.31513 0.921449 0.597175 
2.31513 0.921449 0.606626 2.31513 0.921449 0.617779 2.5 0.922359 0.55 
2.5 0.922359 0.553 2.5 0.922359 0.55609 2.5 0.922359 0.559363 
2.5 0.922359 0.562918 2.5 0.922359 0.566862 2.5 0.922359 0.571312 
2.5 0.922359 0.576403 2.5 0.922359 0.582287 2.5 0.922359 0.589143 
2.5 0.922359 0.597175 2.5 0.922359 0.606626 2.5 0.922359 0.617779 
1.86617 0.925004 0.55 1.86617 0.925004 0.553 1.86617 0.925004 0.55609 
1.86617 0.925004 0.559363 1.86617 0.925004 0.562918 1.86617 0.925004 0.566862 
1.86617 0.925004 0.571312 1.86617 0.925004 0.576403 1.86617 0.925004 0.582287 
1.86617 0.925004 0.589143 1.86617 0.925004 0.597175 1.86617 0.925004 0.606626 
1.86617 0.925004 0.617779 1.87617 0.925112 0.55 1.87617 0.925112 0.553 
1.87617 0.925112 0.55609 1.87617 0.925112 0.559363 1.87617 0.925112 0.562918 
1.87617 0.925112 0.566862 1.87617 0.925112 0.571312 1.87617 0.925112 0.576403 
1.87617 0.925112 0.582287 1.87617 0.925112 0.589143 1.87617 0.925112 0.597175 
1.87617 0.925112 0.606626 1.87617 0.925112 0.617779 1.88737 0.925234 0.55 
1.88737 0.925234 0.553 1.88737 0.925234 0.55609 1.88737 0.925234 0.559363 
1.88737 0.925234 0.562918 1.88737 0.925234 0.566862 1.88737 0.925234 0.571312 
1.88737 0.925234 0.576403 1.88737 0.925234 0.582287 1.88737 0.925234 0.589143 
1.88737 0.925234 0.597175 1.88737 0.925234 0.606626 1.88737 0.925234 0.617779 
1.90113 0.925384 0.55 1.90113 0.925384 0.553 1.90113 0.925384 0.55609 
1.90113 0.925384 0.559363 1.90113 0.925384 0.562918 1.90113 0.925384 0.566862 
1.90113 0.925384 0.571312 1.90113 0.925384 0.576403 1.90113 0.925384 0.582287 
1.90113 0.925384 0.589143 1.90113 0.925384 0.597175 1.90113 0.925384 0.606626 
1.90113 0.925384 0.617779 1.9191 0.92558 0.55 1.9191 0.92558 0.553 
1.9191 0.92558 0.55609 1.9191 0.92558 0.559363 1.9191 0.92558 0.562918 
1.9191 0.92558 0.566862 1.9191 0.92558 0.571312 1.9191 0.92558 0.576403 
1.9191 0.92558 0.582287 1.9191 0.92558 0.589143 1.9191 0.92558 0.597175 
1.9191 0.92558 0.606626 1.9191 0.92558 0.617779 1.94344 0.925845 0.55 
1.94344 0.925845 0.553 1.94344 0.925845 0.55609 1.94344 0.925845 0.559363 
1.94344 0.925845 0.562918 1.94344 0.925845 0.566862 1.94344 0.925845 0.571312 
1.94344 0.925845 0.576403 1.94344 0.925845 0.582287 1.94344 0.925845 0.589143 
[...]
POINT_DATA 3120
FIELD FieldData 5
pressure 1 3120 float
0.197632 0.197637 0.199141 0.200856 0.203394 0.205836 0.208177 0.210245 0.212173 
0.214002 0.215747 0.217394 0.218841 0.111212 0.111212 0.11898 0.128366 0.141334 
0.154179 0.166454 0.176601 0.185145 0.192385 0.198417 0.203423 0.207427 0.104014 
0.104014 0.1056 0.10968 0.119141 0.13074 0.144842 0.15884 0.170991 0.180596 
0.188763 0.195772 0.201438 0.106843 0.106843 0.106947 0.106603 0.10783 0.111556 
0.120899 0.133939 0.149498 0.164338 0.176055 0.185036 0.192557 0.105867 0.105867 
0.105342 0.10476 0.103701 0.10367 0.106288 0.111681 0.123171 0.13839 0.154903 
0.168829 0.179214 0.108427 0.108427 0.107942 0.107814 0.107654 0.106985 0.10556 
0.104602 0.105968 0.111837 0.124179 0.140431 0.157622 0.110771 0.110771 0.110423 
0.110248 0.109596 0.108823 0.107646 0.10631 0.104963 0.103477 0.104689 0.110826 
0.125153 0.113856 0.113856 0.11349 0.113382 0.113195 0.112894 0.11246 0.111784 
0.110697 0.109309 0.107478 0.105751 0.106566 0.11582 0.11582 0.1155 0.115483 
0.115385 0.115291 0.115137 0.11493 0.114635 0.114238 0.113526 0.112338 0.110513 
0.121646 0.121646 0.121322 0.121321 0.121243 0.121181 0.12107 0.120937 0.120735 
0.120446 0.119959 0.119231 0.117953 0.1343 0.1343 0.133895 0.133916 0.133774 
0.133637 0.13339 0.13308 0.132666 0.132126 0.13144 0.130509 0.129311 0.149226 
0.149226 0.148923 0.149018 0.148933 0.14891 0.148826 0.148742 0.148626 0.148492 
0.1483 0.148023 0.147615 0.204358 0.204358 0.205741 0.207143 0.209094 0.211031 
0.212913 0.214557 0.216107 0.217595 0.219066 0.220415 0.22152 0.125901 0.125901 
0.144436 0.159629 0.173613 0.184342 0.191875 0.197413 0.201949 0.205849 0.209161 
0.211968 0.21428 0.103458 0.103458 0.108167 0.115972 0.129971 0.145434 0.161803 
0.174498 0.183508 0.190335 0.196211 0.201443 0.205779 0.106392 0.106392 0.106177 
0.106436 0.108988 0.115645 0.127708 0.143297 0.158761 0.1724 0.182638 0.190479 
0.196992 0.105074 0.105074 0.104048 0.103441 0.102716 0.103416 0.107147 0.114902 
0.128163 0.144153 0.16134 0.175217 0.185063 0.10763 0.10763 0.106966 0.106926 
0.106635 0.106233 0.105084 0.104552 0.10706 0.114544 0.128401 0.145725 0.163234 
0.109964 0.109964 0.1094 0.109115 0.1085 0.107889 0.106916 0.106109 0.104924 
0.103694 0.105522 0.113155 0.128115 0.113364 0.113364 0.112988 0.112754 0.112569 
0.112267 0.111851 0.111183 0.11013 0.108682 0.10694 0.105307 0.106736 0.114964 
0.114964 0.114654 0.114628 0.114512 0.11443 0.114225 0.11398 0.113596 0.113167 
0.112376 0.11125 0.109454 0.121018 0.121018 0.120686 0.120698 0.120611 0.120554 
0.120444 0.120337 0.12015 0.119895 0.119424 0.118693 0.117338 0.133595 0.133595 
0.133205 0.133212 0.133093 0.132987 0.132783 0.132517 0.132138 0.131628 0.130949 
0.129995 0.128715 0.148635 0.148635 0.148346 0.148442 0.148366 0.148352 0.148275 
0.148195 0.148069 0.147915 0.147696 0.147393 0.146982 0.216926 0.216926 0.217713 
0.21838 0.219266 0.220042 0.220858 0.221669 0.222497 0.223363 0.224234 0.225066 
0.225701 0.149864 0.149864 0.167818 0.183587 0.196625 0.20447 0.209067 0.212112 
0.214418 0.216343 0.21804 0.219522 0.220732 0.119614 0.119614 0.124196 0.13223 
0.147817 0.164607 0.180175 0.191707 0.199147 0.203897 0.207486 0.210595 0.213215 
0.1138 0.1138 0.113466 0.113417 0.116104 0.123276 0.137284 0.154012 0.17048 
0.183673 0.192334 0.198358 0.20323 0.108555 0.108555 0.107632 0.107166 0.106505 
0.106964 0.111194 0.119212 0.133538 0.150785 0.168486 0.182217 0.191359 0.109305 
0.109305 0.108969 0.108908 0.108649 0.108089 0.106823 0.106322 0.109382 0.117969 
0.133096 0.151679 0.169771 0.110395 0.110395 0.110032 0.109801 0.109273 0.108603 
0.107665 0.106754 0.105602 0.104864 0.107351 0.116111 0.132225 0.113282 0.113282 
0.113007 0.112855 0.112638 0.112281 0.111943 0.111214 0.110204 0.108726 0.107225 
0.105896 0.108015 0.114517 0.114517 0.114243 0.114217 0.114125 0.114008 0.113823 
0.113535 0.113134 0.112651 0.11182 0.110685 0.10907 0.120555 0.120555 0.120241 
0.120269 0.120171 0.120135 0.120013 0.119905 0.119707 0.119448 0.118941 0.118209 
0.116882 0.132796 0.132796 0.132425 0.132454 0.132351 0.132262 0.132086 0.131844 
0.131491 0.130987 0.130323 0.129361 0.128106 0.147912 0.147912 0.147644 0.147731 
0.147656 0.147633 0.147556 0.147474 0.147352 0.147197 0.146969 0.146659 0.146218 
0.226696 0.226696 0.227316 0.227768 0.228102 0.228403 0.228726 0.229025 0.229451 
0.229867 0.23032 0.230742 0.230943 0.166166 0.166166 0.183657 0.199337 0.211821 
0.218294 0.221617 0.223266 0.224364 0.225174 0.225902 0.226555 0.22704 0.13949 
0.13949 0.14508 0.154725 0.169915 0.186174 0.200593 0.209911 0.21491 0.217692 
0.219446 0.220812 0.221971 0.127265 0.127265 0.127631 0.128737 0.133592 0.143765 
0.158458 0.175151 0.190644 0.201359 0.207453 0.211088 0.213713 0.11376 0.11376 
0.113581 0.113282 0.113601 0.115861 0.121524 0.132836 0.14803 0.165584 0.182328 
0.19433 0.201573 0.111436 0.111436 0.111256 0.111121 0.110668 0.109957 0.109184 
0.109824 0.115208 0.126082 0.142254 0.160991 0.178881 0.111264 0.111264 0.110856 
0.110642 0.11009 0.109549 0.108739 0.10807 0.107221 0.10763 0.111444 0.122222 
0.139167 0.113419 0.113419 0.113215 0.113038 0.112838 0.112491 0.112006 0.11123 
0.110155 0.108704 0.107573 0.106928 0.110439 0.114069 0.114069 0.113733 0.113681 
0.113495 0.113346 0.113098 0.112807 0.112412 0.111876 0.111112 0.110061 0.108661 
0.120012 0.120012 0.119688 0.119673 0.119583 0.119518 0.119408 0.119279 0.119082 
0.118843 0.118353 0.11763 0.116302 0.131833 0.131833 0.131483 0.131528 0.131422 
0.131329 0.131158 0.130923 0.130582 0.130097 0.129445 0.128502 0.127295 0.146882 
0.146882 0.146626 0.146698 0.146617 0.146593 0.14651 0.146424 0.146303 0.14614 
0.145909 0.145588 0.14511 0.235563 0.235563 0.235593 0.235839 0.235924 0.236284 
0.236613 0.23685 0.237042 0.237237 0.237408 0.237535 0.237415 0.175397 0.175397 
0.19244 0.208061 0.220805 0.227626 0.230879 0.232475 0.233273 0.233665 0.233898 
0.234053 0.234084 0.155034 0.155034 0.158775 0.168037 0.182193 0.198324 0.212779 
0.221887 0.226512 0.228599 0.229566 0.230088 0.230423 0.148301 0.148301 0.14917 
0.150027 0.154023 0.162833 0.175965 0.191559 0.206481 0.216392 0.221352 0.223666 
0.224931 0.133897 0.133897 0.133986 0.134187 0.135446 0.137506 0.143192 0.153009 
0.166807 0.183573 0.199227 0.209387 0.214815 0.122859 0.122859 0.122869 0.122858 
0.122856 0.122655 0.123102 0.124619 0.130492 0.140767 0.15634 0.174544 0.191569 
0.116527 0.116527 0.116199 0.115911 0.115443 0.11507 0.114735 0.114515 0.114479 
0.11603 0.120752 0.132193 0.149183 0.114662 0.114662 0.114444 0.114276 0.114112 
0.113851 0.11351 0.11299 0.112231 0.111322 0.110532 0.111096 0.115898 0.114182 
0.114182 0.113914 0.113833 0.113703 0.113525 0.113285 0.112925 0.112528 0.111966 
0.111359 0.110532 0.109401 0.119695 0.119695 0.119394 0.119372 0.119274 0.119208 
0.119102 0.118981 0.118819 0.118626 0.118237 0.117435 0.116178 0.130727 0.130727 
0.130429 0.130469 0.130361 0.130274 0.130094 0.129866 0.129539 0.129066 0.128402 
0.127582 0.126506 0.145425 0.145425 0.14519 0.14524 0.145168 0.145141 0.145075 
0.144999 0.144874 0.144706 0.144435 0.144095 0.143542 0.243557 0.243557 0.243129 
0.243338 0.243537 0.243888 0.244217 0.244519 0.244663 0.244795 0.244865 0.244823 
0.244515 0.181393 0.181393 0.198202 0.214439 0.227824 0.235509 0.239023 0.240848 
0.241734 0.242098 0.242139 0.242078 0.241872 0.163412 0.163412 0.166125 0.173541 
0.187515 0.204356 0.22029 0.230602 0.235638 0.237906 0.238761 0.238982 0.238948 
0.163683 0.163683 0.163472 0.16468 0.166588 0.173846 0.184641 0.200489 0.216183 
0.227005 0.232259 0.234262 0.235049 0.153095 0.153095 0.153082 0.153713 0.154739 
0.157362 0.161064 0.169341 0.18138 0.197066 0.212726 0.222739 0.227598 0.140469 
0.140469 0.140777 0.141012 0.141648 0.142407 0.143762 0.146125 0.150711 0.159622 
0.173101 0.190051 0.206292 0.127319 0.127319 0.127356 0.127214 0.127161 0.127134 
0.127376 0.127931 0.129373 0.132168 0.137932 0.148586 0.163867 0.117912 0.117912 
0.117705 0.117582 0.117383 0.117182 0.116983 0.116854 0.116742 0.116717 0.117279 
0.119698 0.126446 0.115322 0.115322 0.115055 0.114942 0.114812 0.114655 0.114449 
0.114184 0.113882 0.113535 0.113116 0.112625 0.112284 0.120258 0.120258 0.119992 
0.119964 0.119901 0.119834 0.119723 0.119582 0.119383 0.119104 0.118625 0.117819 
0.116815 0.129658 0.129658 0.129419 0.129437 0.129344 0.129267 0.129112 0.128911 
0.128614 0.128198 0.127654 0.126948 0.125935 0.143517 0.143517 0.143304 0.143346 
0.143273 0.143242 0.143173 0.143093 0.142965 0.142786 0.142509 0.142147 0.141557 
0.251276 0.251276 0.25085 0.251012 0.251311 0.251584 0.251867 0.252154 0.25232 
0.252416 0.252456 0.252358 0.252054 0.188833 0.188833 0.205704 0.222902 0.236316 
0.243915 0.247259 0.249029 0.249889 0.250243 0.25028 0.250157 0.249983 0.166912 
0.166912 0.169994 0.17856 0.194338 0.212663 0.229087 0.239408 0.244221 0.246592 
0.247518 0.247713 0.247631 0.172465 0.172465 0.172124 0.172503 0.173658 0.180305 
0.191586 0.20863 0.225066 0.236313 0.241664 0.243804 0.244504 0.164155 0.164155 
0.163673 0.163831 0.164421 0.166329 0.169463 0.177335 0.189734 0.206138 0.222699 
0.233369 0.238257 0.157811 0.157811 0.157772 0.158243 0.158785 0.159667 0.160435 
0.161668 0.16444 0.171979 0.184371 0.201348 0.218066 0.146697 0.146697 0.146766 
0.146839 0.147016 0.147217 0.147556 0.14812 0.149348 0.151609 0.155757 0.164386 
0.177977 0.130788 0.130788 0.130758 0.130767 0.130829 0.130916 0.13111 0.131397 
0.131858 0.132483 0.133766 0.136504 0.142427 0.12168 0.12168 0.121441 0.121255 
0.121111 0.120999 0.120893 0.120772 0.120663 0.120603 0.120686 0.120889 0.121493 
0.122443 0.122443 0.122183 0.122152 0.122082 0.122021 0.12195 0.12185 0.121747 
0.121545 0.12117 0.120732 0.119965 0.129083 0.129083 0.128894 0.1289 0.128847 
0.128783 0.128679 0.1285 0.128225 0.127848 0.127362 0.12672 0.12583 0.141359 
0.141359 0.141194 0.141219 0.141148 0.141113 0.141037 0.140958 0.14083 0.14066 
0.140398 0.140046 0.139472 0.258957 0.258957 0.258589 0.258635 0.258848 0.259 
0.259234 0.259468 0.25962 0.259714 0.259748 0.259737 0.259553 0.193875 0.193875 
0.212176 0.23037 0.244313 0.251758 0.255072 0.256745 0.257603 0.258 0.258109 
0.258095 0.258028 0.175687 0.175687 0.178585 0.186946 0.202454 0.220819 0.237231 
0.247576 0.252471 0.254834 0.255834 0.256135 0.256104 0.175155 0.175155 0.174748 
0.175556 0.17797 0.18645 0.199392 0.216696 0.233625 0.244956 0.250348 0.252678 
0.253375 0.172051 0.172051 0.171732 0.172184 0.172861 0.174505 0.176896 0.185047 
0.196629 0.21404 0.231224 0.242468 0.247194 0.168308 0.168308 0.16805 0.168154 
0.168094 0.16813 0.168519 0.169854 0.172552 0.180031 0.192095 0.209812 0.226977 
0.161944 0.161944 0.161819 0.161942 0.161973 0.162166 0.162496 0.163202 0.163875 
0.165248 0.168407 0.175205 0.188116 0.148292 0.148292 0.14832 0.148408 0.148553 
0.148772 0.148989 0.149156 0.149496 0.150084 0.151268 0.153377 0.158065 0.132612 
0.132612 0.132476 0.132469 0.132456 0.132481 0.132561 0.132681 0.132971 0.133351 
0.133946 0.134817 0.136308 0.127012 0.127012 0.126864 0.126817 0.126792 0.126782 
0.126783 0.126781 0.126755 0.126727 0.126665 0.126603 0.126546 0.129414 0.129414 
0.129236 0.129229 0.129125 0.129025 0.128863 0.128661 0.128397 0.128079 0.127674 
0.127165 0.126458 0.139509 0.139509 0.139416 0.139423 0.139384 0.139363 0.139309 
0.139246 0.139134 0.138971 0.138712 0.138357 0.137802 0.265645 0.265645 0.265378 
0.2654 0.265549 0.265679 0.265954 0.266219 0.266513 0.266697 0.266922 0.267062 
0.267131 0.197299 0.197299 0.217202 0.235727 0.250521 0.258359 0.261971 0.263775 
0.264821 0.265367 0.265692 0.265811 0.2659 0.186763 0.186763 0.188781 0.19612 
0.209887 0.227903 0.244319 0.254784 0.259968 0.262502 0.263719 0.264148 0.264201 
0.176019 0.176019 0.175616 0.176959 0.181223 0.190938 0.205443 0.223443 0.240926 
0.252662 0.258305 0.260862 0.261638 0.180247 0.180247 0.180375 0.181195 0.18206 
0.18264 0.184539 0.191746 0.203309 0.221071 0.238633 0.25051 0.255423 0.174761 
0.174761 0.174411 0.174276 0.17387 0.173586 0.173863 0.175674 0.178814 0.186563 
0.199755 0.217527 0.235177 0.170792 0.170792 0.170669 0.170782 0.170962 0.171324 
0.17176 0.172381 0.172961 0.173308 0.1753 0.181473 0.19409 0.163956 0.163956 
0.163809 0.163811 0.163775 0.163689 0.163625 0.163355 0.163157 0.16324 0.163907 
0.165142 0.168788 0.149118 0.149118 0.149037 0.149104 0.149162 0.149308 0.149528 
0.149832 0.150232 0.150806 0.151559 0.152495 0.153849 0.136862 0.136862 0.136861 
0.13688 0.136931 0.136963 0.13702 0.137077 0.137168 0.137276 0.137458 0.137776 
0.138203 0.131744 0.131744 0.131574 0.131536 0.131384 0.131317 0.131191 0.131039 
0.130869 0.130652 0.130388 0.130046 0.129678 0.138078 0.138078 0.138051 0.138045 
0.13805 0.138006 0.137961 0.137902 0.137791 0.137641 0.1374 0.137091 0.136588 
0.27165 0.27165 0.271537 0.271561 0.27175 0.271981 0.272331 0.27277 0.273212 
0.273582 0.273913 0.274242 0.274359 0.200658 0.200658 0.221868 0.240755 0.256303 
0.264793 0.268674 0.270686 0.271853 0.272561 0.272947 0.273187 0.273185 0.194444 
0.194444 0.196518 0.203801 0.217519 0.235111 0.251417 0.261876 0.267169 0.269839 
0.27116 0.271646 0.271586 0.179779 0.179779 0.180023 0.181909 0.186445 0.196942 
0.211982 0.230463 0.248183 0.260033 0.265809 0.268396 0.269108 0.186085 0.186085 
0.186284 0.187199 0.188217 0.188959 0.191213 0.198407 0.210299 0.228218 0.246141 
0.257988 0.263318 0.178682 0.178682 0.178456 0.178239 0.177704 0.177386 0.177709 
0.17963 0.18301 0.191589 0.205447 0.223966 0.242314 0.177465 0.177465 0.177369 
0.177374 0.177464 0.177757 0.178136 0.178845 0.179779 0.180463 0.182163 0.187579 
0.199469 0.175236 0.175236 0.175092 0.175083 0.175009 0.174831 0.174545 0.173812 
0.172744 0.171862 0.171616 0.172472 0.175292 0.164217 0.164217 0.164216 0.164293 
0.164394 0.164528 0.16477 0.165111 0.165584 0.16623 0.167039 0.168236 0.169609 
0.148297 0.148297 0.148411 0.148418 0.14852 0.148667 0.148882 0.149138 0.149483 
0.149866 0.150296 0.150628 0.150993 0.136245 0.136245 0.136255 0.136125 0.1361 
0.136034 0.135974 0.13588 0.135783 0.13566 0.135569 0.135565 0.135728 0.137861 
0.137861 0.137916 0.137919 0.137891 0.137812 0.137737 0.137624 0.137493 0.137316 
0.137054 0.136711 0.136201 0.276618 0.276618 0.277056 0.277068 0.277297 0.277566 
0.277961 0.27855 0.27928 0.280005 0.280586 0.280925 0.280986 0.204825 0.204825 
0.22811 0.247548 0.262982 0.270959 0.274728 0.276821 0.278163 0.279126 0.279749 
0.280025 0.280051 0.198191 0.198191 0.201542 0.209909 0.224709 0.242594 0.25854 
0.26857 0.273696 0.276362 0.277844 0.278498 0.27851 0.18313 0.18313 0.183766 
0.186279 0.191844 0.202765 0.219024 0.237804 0.255371 0.266735 0.272392 0.275185 
0.275992 0.18951 0.18951 0.190072 0.190917 0.192041 0.192746 0.195456 0.202793 
0.216139 0.234697 0.252574 0.264484 0.269725 0.181759 0.181759 0.181598 0.181067 
0.180312 0.179927 0.180139 0.181833 0.185383 0.194671 0.209222 0.228671 0.247672 
0.184985 0.184985 0.185019 0.184976 0.185051 0.185134 0.185456 0.186144 0.186931 
0.186516 0.188048 0.193148 0.20409 0.185121 0.185121 0.185068 0.184998 0.184864 
0.184588 0.184178 0.183135 0.181833 0.180799 0.180121 0.180487 0.182664 0.174667 
0.174667 0.174802 0.174886 0.175033 0.175229 0.175483 0.175905 0.176373 0.177105 
0.177853 0.179172 0.180486 0.158926 0.158926 0.159163 0.159172 0.15932 0.159472 
0.159719 0.160001 0.160435 0.160872 0.161387 0.16168 0.162151 0.143061 0.143061 
0.143175 0.143122 0.143123 0.143079 0.143023 0.14296 0.14289 0.142807 0.142783 
0.142887 0.143176 0.138021 0.138021 0.138147 0.138115 0.138022 0.137956 0.137847 
0.137729 0.137583 0.137403 0.137165 0.136862 0.136415 0.281748 0.281748 0.281621 
0.281057 0.281669 0.281835 0.282458 0.28313 0.283899 0.284737 0.285721 0.286579 
0.287032 0.207678 0.207678 0.233869 0.253231 0.268184 0.275549 0.279259 0.281247 
0.282614 0.283692 0.284613 0.285336 0.285766 0.199613 0.199613 0.205402 0.214335 
0.230263 0.247975 0.263317 0.27291 0.278063 0.281013 0.282782 0.28378 0.284077 
0.183769 0.183769 0.185009 0.187626 0.194405 0.205538 0.222365 0.24136 0.259325 
0.271268 0.277482 0.280719 0.281694 0.191516 0.191516 0.192714 0.193209 0.19364 
0.194441 0.1976 0.204766 0.218469 0.237454 0.25616 0.269505 0.275169 0.187517 
0.187517 0.187593 0.186719 0.186075 0.18544 0.185143 0.186582 0.189608 0.197569 
0.212141 0.231777 0.251212 0.192546 0.192546 0.192901 0.192835 0.192875 0.192845 
0.193335 0.194232 0.195241 0.194953 0.196071 0.199952 0.209428 0.191629 0.191629 
0.192054 0.191957 0.191924 0.191631 0.191305 0.190359 0.189125 0.188322 0.18759 
0.187928 0.190048 0.181131 0.181131 0.181515 0.18152 0.181669 0.181828 0.182096 
0.182505 0.183012 0.183769 0.184669 0.186115 0.1877 0.1674 0.1674 0.167818 
0.167786 0.167908 0.167989 0.168164 0.168377 0.16875 0.169168 0.169666 0.17 
0.170482 0.149501 0.149501 0.14973 0.149704 0.149659 0.149577 0.149488 0.149369 
0.149255 0.149155 0.149124 0.149253 0.149574 0.138849 0.138849 0.139107 0.138957 
0.13897 0.138892 0.138831 0.138725 0.138613 0.138451 0.138255 0.138003 0.137609 
0.280693 0.280693 0.282121 0.281988 0.282524 0.28318 0.284162 0.285485 0.287042 
0.288691 0.290303 0.291537 0.292048 0.208596 0.208596 0.234175 0.253391 0.268265 
0.276241 0.28055 0.283311 0.285499 0.287381 0.288977 0.29023 0.290763 0.198742 
0.198742 0.205667 0.213665 0.228941 0.246821 0.26299 0.274048 0.280407 0.284379 
0.286857 0.288442 0.288889 0.183744 0.183744 0.185286 0.187741 0.194416 0.204701 
0.221687 0.241015 0.259478 0.27317 0.280759 0.285037 0.286289 0.194848 0.194848 
0.196548 0.197432 0.198343 0.199117 0.201686 0.208045 0.220306 0.237829 0.256799 
0.271821 0.279256 0.194009 0.194009 0.194788 0.194029 0.193237 0.192895 0.192671 
0.193844 0.196681 0.20369 0.216 0.234092 0.253421 0.19798 0.19798 0.199067 
0.198871 0.198909 0.198938 0.199711 0.200458 0.201666 0.202527 0.203614 0.206691 
0.214789 0.195152 0.195152 0.196096 0.195808 0.195651 0.195332 0.194995 0.194541 
0.193772 0.19318 0.193011 0.19367 0.196009 0.184846 0.184846 0.18561 0.185528 
0.185666 0.185769 0.186027 0.186381 0.186903 0.187665 0.188788 0.190386 0.192338 
0.173276 0.173276 0.173941 0.173789 0.173869 0.173877 0.174013 0.174201 0.174498 
0.174928 0.175358 0.17577 0.176252 0.154978 0.154978 0.15541 0.155248 0.155214 
0.155039 0.154886 0.154688 0.154522 0.154395 0.154345 0.154464 0.154731 0.139691 
0.139691 0.139978 0.139928 0.139946 0.13991 0.139904 0.13986 0.139825 0.139734 
0.139617 0.139408 0.139073 0.274342 0.274342 0.27505 0.277059 0.27897 0.281714 
0.284759 0.287573 0.290148 0.292383 0.294206 0.29548 0.296051 0.203941 0.203941 
0.226273 0.245082 0.261829 0.272669 0.279934 0.284618 0.288151 0.29083 0.292812 
0.294154 0.294759 0.194674 0.194674 0.200295 0.208212 0.2239 0.241413 0.258822 
0.272722 0.281702 0.287479 0.290579 0.292281 0.292937 0.186524 0.186524 0.188021 
0.190799 0.196372 0.20633 0.221098 0.239228 0.25758 0.273232 0.283211 0.288779 
0.290189 0.198772 0.198772 0.201131 0.20163 0.202757 0.204322 0.207541 0.213282 
0.224115 0.239179 0.257451 0.273553 0.282593 0.197135 0.197135 0.198587 0.197993 
0.197521 0.197616 0.198385 0.200225 0.20374 0.210159 0.221237 0.237176 0.255793 
0.199867 0.199867 0.201639 0.201336 0.20157 0.20197 0.202738 0.204098 0.205743 
0.20727 0.209092 0.212307 0.219741 0.196397 0.196397 0.197895 0.197345 0.197166 
0.196846 0.196682 0.196499 0.196364 0.196318 0.196579 0.197611 0.200127 0.186883 
0.186883 0.188054 0.187827 0.187947 0.187997 0.188258 0.188629 0.189195 0.190082 
0.191376 0.193198 0.195393 0.176976 0.176976 0.177932 0.177675 0.177726 0.177685 
0.177793 0.177953 0.178249 0.178646 0.179114 0.179578 0.180125 0.159017 0.159017 
0.159588 0.159305 0.159226 0.158968 0.158746 0.158511 0.158321 0.158201 0.158132 
0.158238 0.158463 0.140409 0.140409 0.14079 0.140824 0.140952 0.141004 0.141084 
0.141143 0.141137 0.141071 0.140984 0.140793 0.140468 0.267962 0.267962 0.26854 
0.271321 0.275828 0.281393 0.28639 0.290242 0.29334 0.295735 0.297557 0.298666 
0.299139 0.195239 0.195239 0.21582 0.236044 0.254311 0.269701 0.28007 0.286421 
0.290832 0.294008 0.296155 0.297409 0.297872 0.198653 0.198653 0.202502 0.207799 