# vtk DataFile Version 5.1
vtk output
ASCII
DATASET STRUCTURED_GRID
DIMENSIONS 20 55 21
POINTS 23100 float
0.777419 0.489311 0.5 0.775473 0.494987 0.5 0.773495 0.500756 0.5 
0.771453 0.506715 0.5 0.769312 0.51296 0.5 0.767037 0.519595 0.5 
0.764592 0.52673 0.5 0.761934 0.534482 0.5 0.759022 0.542979 0.5 
0.755805 0.552361 0.5 0.752233 0.562783 0.5 0.748245 0.574417 0.5 
0.743775 0.587455 0.5 0.738751 0.602112 0.5 0.733089 0.618629 0.5 
0.726696 0.637279 0.5 0.719466 0.658369 0.5 0.71128 0.682249 0.5 
0.702004 0.70931 0.5 0.691483 0.74 0.5 0.777419 0.489311 0.497 
0.775473 0.494987 0.497 0.773495 0.500756 0.497 0.771453 0.506715 0.497 
0.769312 0.51296 0.497 0.767037 0.519595 0.497 0.764592 0.52673 0.497 
0.761934 0.534482 0.497 0.759022 0.542979 0.497 0.755805 0.552361 0.497 
0.752233 0.562783 0.497 0.748245 0.574417 0.497 0.743775 0.587455 0.497 
0.738751 0.602112 0.497 0.733089 0.618629 0.497 0.726696 0.637279 0.497 
0.719466 0.658369 0.497 0.71128 0.682249 0.497 0.702004 0.70931 0.497 
0.691483 0.74 0.497 0.777419 0.489311 0.493548 0.775473 0.494987 0.493548 
0.773495 0.500756 0.493548 0.771453 0.506715 0.493548 0.769312 0.51296 0.493548 
0.767037 0.519595 0.493548 0.764592 0.52673 0.493548 0.761934 0.534482 0.493548 
0.759022 0.542979 0.493548 0.755805 0.552361 0.493548 0.752233 0.562783 0.493548 
0.748245 0.574417 0.493548 0.743775 0.587455 0.493548 0.738751 0.602112 0.493548 
0.733089 0.618629 0.493548 0.726696 0.637279 0.493548 0.719466 0.658369 0.493548 
0.71128 0.682249 0.493548 0.702004 0.70931 0.493548 0.691483 0.74 0.493548 
0.777419 0.489311 0.489579 0.775473 0.494987 0.489579 0.773495 0.500756 0.489579 
0.771453 0.506715 0.489579 0.769312 0.51296 0.489579 0.767037 0.519595 0.489579 
0.764592 0.52673 0.489579 0.761934 0.534482 0.489579 0.759022 0.542979 0.489579 
0.755805 0.552361 0.489579 0.752233 0.562783 0.489579 0.748245 0.574417 0.489579 
0.743775 0.587455 0.489579 0.738751 0.602112 0.489579 0.733089 0.618629 0.489579 
0.726696 0.637279 0.489579 0.719466 0.658369 0.489579 0.71128 0.682249 0.489579 
0.702004 0.70931 0.489579 0.691483 0.74 0.489579 0.777419 0.489311 0.485022 
0.775473 0.494987 0.485022 0.773495 0.500756 0.485022 0.771453 0.506715 0.485022 
0.769312 0.51296 0.485022 0.767037 0.519595 0.485022 0.764592 0.52673 0.485022 
0.761934 0.534482 0.485022 0.759022 0.542979 0.485022 0.755805 0.552361 0.485022 
0.752233 0.562783 0.485022 0.748245 0.574417 0.485022 0.743775 0.587455 0.485022 
0.738751 0.602112 0.485022 0.733089 0.618629 0.485022 0.726696 0.637279 0.485022 
0.719466 0.658369 0.485022 0.71128 0.682249 0.485022 0.702004 0.70931 0.485022 
0.691483 0.74 0.485022 0.777419 0.489311 0.479796 0.775473 0.494987 0.479796 
0.773495 0.500756 0.479796 0.771453 0.506715 0.479796 0.769312 0.51296 0.479796 
0.767037 0.519595 0.479796 0.764592 0.52673 0.479796 0.761934 0.534482 0.479796 
0.759022 0.542979 0.479796 0.755805 0.552361 0.479796 0.752233 0.562783 0.479796 
0.748245 0.574417 0.479796 0.743775 0.587455 0.479796 0.738751 0.602112 0.479796 
0.733089 0.618629 0.479796 0.726696 0.637279 0.479796 0.719466 0.658369 0.479796 
0.71128 0.682249 0.479796 0.702004 0.70931 0.479796 0.691483 0.74 0.479796 
0.777419 0.489311 0.473812 0.775473 0.494987 0.473812 0.773495 0.500756 0.473812 
0.771453 0.506715 0.473812 0.769312 0.51296 0.473812 0.767037 0.519595 0.473812 
0.764592 0.52673 0.473812 0.761934 0.534482 0.473812 0.759022 0.542979 0.473812 
0.755805 0.552361 0.473812 0.752233 0.562783 0.473812 0.748245 0.574417 0.473812 
0.743775 0.587455 0.473812 0.738751 0.602112 0.473812 0.733089 0.618629 0.473812 
0.726696 0.637279 0.473812 0.719466 0.658369 0.473812 0.71128 0.682249 0.473812 
0.702004 0.70931 0.473812 0.691483 0.74 0.473812 0.777419 0.489311 0.466971 
0.775473 0.494987 0.466971 0.773495 0.500756 0.466971 0.771453 0.506715 0.466971 
0.769312 0.51296 0.466971 0.767037 0.519595 0.466971 0.764592 0.52673 0.466971 
0.761934 0.534482 0.466971 0.759022 0.542979 0.466971 0.755805 0.552361 0.466971 
0.752233 0.562783 0.466971 0.748245 0.574417 0.466971 0.743775 0.587455 0.466971 
0.738751 0.602112 0.466971 0.733089 0.618629 0.466971 0.726696 0.637279 0.466971 
0.719466 0.658369 0.466971 0.71128 0.682249 0.466971 0.702004 0.70931 0.466971 
0.691483 0.74 0.466971 0.777419 0.489311 0.459165 0.775473 0.494987 0.459165 
0.773495 0.500756 0.459165 0.771453 0.506715 0.459165 0.769312 0.51296 0.459165 
0.767037 0.519595 0.459165 0.764592 0.52673 0.459165 0.761934 0.534482 0.459165 
0.759022 0.542979 0.459165 0.755805 0.552361 0.459165 0.752233 0.562783 0.459165 
0.748245 0.574417 0.459165 0.743775 0.587455 0.459165 0.738751 0.602112 0.459165 
0.733089 0.618629 0.459165 0.726696 0.637279 0.459165 0.719466 0.658369 0.459165 
0.71128 0.682249 0.459165 0.702004 0.70931 0.459165 0.691483 0.74 0.459165 
0.777419 0.489311 0.450279 0.775473 0.494987 0.450279 0.773495 0.500756 0.450279 
0.771453 0.506715 0.450279 0.769312 0.51296 0.450279 0.767037 0.519595 0.450279 
0.764592 0.52673 0.450279 0.761934 0.534482 0.450279 0.759022 0.542979 0.450279 
0.755805 0.552361 0.450279 0.752233 0.562783 0.450279 0.748245 0.574417 0.450279 
0.743775 0.587455 0.450279 0.738751 0.602112 0.450279 0.733089 0.618629 0.450279 
0.726696 0.637279 0.450279 0.719466 0.658369 0.450279 0.71128 0.682249 0.450279 
0.702004 0.70931 0.450279 0.691483 0.74 0.450279 0.777419 0.489311 0.440188 
0.775473 0.494987 0.440188 0.773495 0.500756 0.440188 0.771453 0.506715 0.440188 
0.769312 0.51296 0.440188 0.767037 0.519595 0.440188 0.764592 0.52673 0.440188 
0.761934 0.534482 0.440188 0.759022 0.542979 0.440188 0.755805 0.552361 0.440188 
0.752233 0.562783 0.440188 0.748245 0.574417 0.440188 0.743775 0.587455 0.440188 
0.738751 0.602112 0.440188 0.733089 0.618629 0.440188 0.726696 0.637279 0.440188 
0.719466 0.658369 0.440188 0.71128 0.682249 0.440188 0.702004 0.70931 0.440188 
0.691483 0.74 0.440188 0.777419 0.489311 0.428762 0.775473 0.494987 0.428762 
0.773495 0.500756 0.428762 0.771453 0.506715 0.428762 0.769312 0.51296 0.428762 
0.767037 0.519595 0.428762 0.764592 0.52673 0.428762 0.761934 0.534482 0.428762 
0.759022 0.542979 0.428762 0.755805 0.552361 0.428762 0.752233 0.562783 0.428762 
0.748245 0.574417 0.428762 0.743775 0.587455 0.428762 0.738751 0.602112 0.428762 
0.733089 0.618629 0.428762 0.726696 0.637279 0.428762 0.719466 0.658369 0.428762 
0.71128 0.682249 0.428762 0.702004 0.70931 0.428762 0.691483 0.74 0.428762 
0.777419 0.489311 0.415865 0.775473 0.494987 0.415865 0.773495 0.500756 0.415865 
0.771453 0.506715 0.415865 0.769312 0.51296 0.415865 0.767037 0.519595 0.415865 
0.764592 0.52673 0.415865 0.761934 0.534482 0.415865 0.759022 0.542979 0.415865 
0.755805 0.552361 0.415865 0.752233 0.562783 0.415865 0.748245 0.574417 0.415865 
0.743775 0.587455 0.415865 0.738751 0.602112 0.415865 0.733089 0.618629 0.415865 
0.726696 0.637279 0.415865 0.719466 0.658369 0.415865 0.71128 0.682249 0.415865 
0.702004 0.70931 0.415865 0.691483 0.74 0.415865 0.777419 0.489311 0.401362 
0.775473 0.494987 0.401362 0.773495 0.500756 0.401362 0.771453 0.506715 0.401362 
0.769312 0.51296 0.401362 0.767037 0.519595 0.401362 0.764592 0.52673 0.401362 
0.761934 0.534482 0.401362 0.759022 0.542979 0.401362 0.755805 0.552361 0.401362 
0.752233 0.562783 0.401362 0.748245 0.574417 0.401362 0.743775 0.587455 0.401362 
0.738751 0.602112 0.401362 0.733089 0.618629 0.401362 0.726696 0.637279 0.401362 
0.719466 0.658369 0.401362 0.71128 0.682249 0.401362 0.702004 0.70931 0.401362 
0.691483 0.74 0.401362 0.777419 0.489311 0.385118 0.775473 0.494987 0.385118 
0.773495 0.500756 0.385118 0.771453 0.506715 0.385118 0.769312 0.51296 0.385118 
0.767037 0.519595 0.385118 0.764592 0.52673 0.385118 0.761934 0.534482 0.385118 
0.759022 0.542979 0.385118 0.755805 0.552361 0.385118 0.752233 0.562783 0.385118 
0.748245 0.574417 0.385118 0.743775 0.587455 0.385118 0.738751 0.602112 0.385118 
0.733089 0.618629 0.385118 0.726696 0.637279 0.385118 0.719466 0.658369 0.385118 
0.71128 0.682249 0.385118 0.702004 0.70931 0.385118 0.691483 0.74 0.385118 
0.777419 0.489311 0.36701 0.775473 0.494987 0.36701 0.773495 0.500756 0.36701 
0.771453 0.506715 0.36701 0.769312 0.51296 0.36701 0.767037 0.519595 0.36701 
0.764592 0.52673 0.36701 0.761934 0.534482 0.36701 0.759022 0.542979 0.36701 
0.755805 0.552361 0.36701 0.752233 0.562783 0.36701 0.748245 0.574417 0.36701 
0.743775 0.587455 0.36701 0.738751 0.602112 0.36701 0.733089 0.618629 0.36701 
0.726696 0.637279 0.36701 0.719466 0.658369 0.36701 0.71128 0.682249 0.36701 
0.702004 0.70931 0.36701 0.691483 0.74 0.36701 0.777419 0.489311 0.346925 
0.775473 0.494987 0.346925 0.773495 0.500756 0.346925 0.771453 0.506715 0.346925 
0.769312 0.51296 0.346925 0.767037 0.519595 0.346925 0.764592 0.52673 0.346925 
0.761934 0.534482 0.346925 0.759022 0.542979 0.346925 0.755805 0.552361 0.346925 
0.752233 0.562783 0.346925 0.748245 0.574417 0.346925 0.743775 0.587455 0.346925 
0.738751 0.602112 0.346925 0.733089 0.618629 0.346925 0.726696 0.637279 0.346925 
0.719466 0.658369 0.346925 0.71128 0.682249 0.346925 0.702004 0.70931 0.346925 
0.691483 0.74 0.346925 0.777419 0.489311 0.324774 0.775473 0.494987 0.324774 
0.773495 0.500756 0.324774 0.771453 0.506715 0.324774 0.769312 0.51296 0.324774 
0.767037 0.519595 0.324774 0.764592 0.52673 0.324774 0.761934 0.534482 0.324774 
0.759022 0.542979 0.324774 0.755805 0.552361 0.324774 0.752233 0.562783 0.324774 
0.748245 0.574417 0.324774 0.743775 0.587455 0.324774 0.738751 0.602112 0.324774 
0.733089 0.618629 0.324774 0.726696 0.637279 0.324774 0.719466 0.658369 0.324774 
0.71128 0.682249 0.324774 0.702004 0.70931 0.324774 0.691483 0.74 0.324774 
0.777419 0.489311 0.300497 0.775473 0.494987 0.300497 0.773495 0.500756 0.300497 
0.771453 0.506715 0.300497 0.769312 0.51296 0.300497 0.767037 0.519595 0.300497 
0.764592 0.52673 0.300497 0.761934 0.534482 0.300497 0.759022 0.542979 0.300497 
0.755805 0.552361 0.300497 0.752233 0.562783 0.300497 0.748245 0.574417 0.300497 
[...]
POINT_DATA 23100
FIELD FieldData 5
pressure 1 23100 float
0.334247 0.289819 0.278125 0.269712 0.264466 0.25964 0.255885 0.251466 0.23351 
0.182432 0.178597 0.178574 0.178571 0.178575 0.178572 0.178574 0.178573 0.178573 
0.178573 0.178573 0.217669 0.274525 0.274074 0.268286 0.263728 0.259247 0.255705 
0.251448 0.233954 0.182603 0.178596 0.178574 0.178571 0.178575 0.178572 0.178574 
0.178573 0.178573 0.178573 0.178573 0.227297 0.265665 0.270024 0.26632 0.262787 
0.258803 0.255516 0.251496 0.234669 0.182889 0.178597 0.178575 0.178571 0.178575 
0.178572 0.178574 0.178573 0.178573 0.178573 0.178573 0.235888 0.260663 0.266169 
0.264134 0.261565 0.258158 0.255189 0.251448 0.235237 0.183208 0.178598 0.178575 
0.178571 0.178575 0.178572 0.178574 0.178573 0.178573 0.178573 0.178573 0.241972 
0.257475 0.262562 0.261813 0.260143 0.257374 0.254784 0.251363 0.235777 0.183529 
0.178598 0.178576 0.178571 0.178575 0.178572 0.178574 0.178573 0.178573 0.178573 
0.178573 0.245455 0.255339 0.259342 0.25956 0.258576 0.25644 0.254277 0.251178 
0.236211 0.183808 0.178596 0.178576 0.178571 0.178574 0.178572 0.178574 0.178573 
0.178573 0.178573 0.178573 0.247557 0.253757 0.256654 0.257467 0.256963 0.255407 
0.253685 0.25092 0.236505 0.184042 0.178588 0.178578 0.178571 0.178574 0.178572 
0.178574 0.178573 0.178573 0.178573 0.178573 0.248667 0.252478 0.254613 0.255547 
0.255373 0.254323 0.253025 0.250626 0.236583 0.18418 0.178586 0.178578 0.178571 
0.178574 0.178572 0.178574 0.178573 0.178573 0.178573 0.178573 0.249247 0.251527 
0.253078 0.253889 0.253912 0.253262 0.252349 0.25032 0.236413 0.184119 0.178591 
0.178577 0.178572 0.178574 0.178572 0.178574 0.178573 0.178573 0.178573 0.178573 
0.249378 0.25086 0.251895 0.252511 0.252616 0.252249 0.25162 0.249899 0.23609 
0.183883 0.178595 0.178576 0.178571 0.178574 0.178572 0.178574 0.178573 0.178573 
0.178573 0.178573 0.249318 0.250293 0.250963 0.251402 0.251539 0.25136 0.250931 
0.249445 0.235508 0.183422 0.178597 0.178576 0.17857 0.178575 0.178571 0.178574 
0.178572 0.178573 0.178573 0.178573 0.249181 0.249813 0.250225 0.250531 0.250662 
0.25058 0.250284 0.248962 0.234677 0.182776 0.178595 0.178575 0.178569 0.178576 
0.178571 0.178574 0.178572 0.178573 0.178573 0.178573 0.249026 0.2494 0.249646 
0.249875 0.249992 0.249968 0.249817 0.24855 0.233179 0.182058 0.17859 0.178575 
0.17857 0.178576 0.178571 0.178574 0.178572 0.178573 0.178573 0.178573 0.248836 
0.24903 0.249187 0.249389 0.249501 0.249533 0.2495 0.248248 0.230915 0.181324 
0.178581 0.178576 0.17857 0.178575 0.178571 0.178574 0.178573 0.178573 0.178573 
0.178573 0.248591 0.24872 0.248876 0.249094 0.249222 0.249285 0.249301 0.247963 
0.227822 0.180659 0.178568 0.17858 0.178569 0.178576 0.178571 0.178574 0.178573 
0.178573 0.178573 0.178573 0.248408 0.248525 0.248683 0.248889 0.248997 0.249069 
0.249113 0.247613 0.224251 0.180092 0.178556 0.178582 0.178568 0.178576 0.178572 
0.178574 0.178573 0.178573 0.178573 0.178573 0.248176 0.248296 0.248461 0.248663 
0.248774 0.248907 0.248969 0.247201 0.220204 0.179688 0.17855 0.178583 0.178568 
0.178575 0.178572 0.178573 0.178573 0.178573 0.178573 0.178573 0.247902 0.248009 
0.248174 0.248386 0.248502 0.248686 0.248761 0.246737 0.21594 0.179403 0.178554 
0.178582 0.178569 0.178574 0.178572 0.178573 0.178573 0.178573 0.178573 0.178573 
0.247641 0.247767 0.247939 0.248154 0.248271 0.248477 0.248521 0.246031 0.21173 
0.179185 0.178563 0.178579 0.178571 0.178573 0.178573 0.178573 0.178573 0.178573 
0.178573 0.178573 0.24745 0.247507 0.247631 0.24778 0.247864 0.248061 0.248061 
0.245197 0.207823 0.179013 0.178572 0.178575 0.178573 0.178573 0.178573 0.178573 
0.178573 0.178573 0.178573 0.178573 0.247182 0.247224 0.247339 0.247484 0.247575 
0.247761 0.247662 0.244121 0.204337 0.1789 0.178577 0.178573 0.178574 0.178572 
0.178573 0.178573 0.178573 0.178573 0.178573 0.178573 0.24698 0.246975 0.247046 
0.247112 0.247113 0.24715 0.24687 0.242815 0.201759 0.178861 0.178576 0.178573 
0.178573 0.178573 0.178573 0.178573 0.178573 0.178573 0.178573 0.178573 0.246686 
0.246638 0.246628 0.246599 0.246466 0.246358 0.245937 0.241536 0.20027 0.178857 
0.178573 0.178575 0.178572 0.178573 0.178573 0.178573 0.178573 0.178573 0.178573 
0.178573 0.246146 0.245963 0.245835 0.245688 0.245473 0.245353 0.245001 0.240784 
0.199757 0.178859 0.178572 0.178576 0.178572 0.178573 0.178573 0.178573 0.178573 
0.178573 0.178573 0.178573 0.245316 0.245149 0.245048 0.244969 0.244849 0.244866 
0.244651 0.24047 0.199643 0.178857 0.178572 0.178576 0.178572 0.178573 0.178573 
0.178573 0.178573 0.178573 0.178573 0.178573 0.244666 0.244537 0.244504 0.244496 
0.244467 0.244579 0.244473 0.240495 0.199653 0.178856 0.178572 0.178575 0.178572 
0.178573 0.178573 0.178573 0.178573 0.178573 0.178573 0.178573 0.244369 0.244349 
0.244404 0.244483 0.244521 0.244678 0.244576 0.240465 0.199598 0.178856 0.178572 
0.178575 0.178572 0.178573 0.178573 0.178573 0.178573 0.178573 0.178573 0.178573 
0.244342 0.244314 0.244368 0.244429 0.244453 0.244596 0.244509 0.240512 0.199586 
0.178855 0.178572 0.178575 0.178572 0.178573 0.178573 0.178573 0.178573 0.178573 
0.178573 0.178573 0.244332 0.244339 0.244413 0.244505 0.244547 0.244703 0.244596 
0.24046 0.199528 0.178855 0.178572 0.178575 0.178572 0.178573 0.178573 0.178573 
0.178573 0.178573 0.178573 0.178573 0.244389 0.244331 0.244364 0.244411 0.244429 
0.244574 0.244492 0.240487 0.199529 0.178854 0.178572 0.178575 0.178572 0.178573 
0.178573 0.178573 0.178573 0.178573 0.178573 0.178573 0.244657 0.244561 0.244548 
0.244568 0.24456 0.244685 0.244565 0.240409 0.199468 0.178854 0.178572 0.178575 
0.178572 0.178573 0.178573 0.178573 0.178573 0.178573 0.178573 0.178573 0.245342 
0.245137 0.245014 0.244904 0.244768 0.244775 0.244579 0.240475 0.199452 0.178854 
0.178571 0.178575 0.178572 0.178573 0.178573 0.178573 0.178573 0.178573 0.178573 
0.178573 0.24614 0.245987 0.245875 0.245751 0.245551 0.245442 0.245079 0.240683 
0.199494 0.178853 0.178572 0.178576 0.178572 0.178574 0.178572 0.178573 0.178573 
0.178573 0.178573 0.178573 0.246729 0.246647 0.246617 0.246552 0.246398 0.246279 
0.245863 0.241481 0.199987 0.178853 0.178573 0.178575 0.178572 0.178573 0.178573 
0.178573 0.178573 0.178573 0.178573 0.178573 0.246963 0.24698 0.247066 0.247158 
0.247177 0.247229 0.246948 0.242723 0.201337 0.178859 0.178576 0.178574 0.178573 
0.178573 0.178573 0.178573 0.178573 0.178573 0.178573 0.178573 0.247219 0.247231 
0.247325 0.247442 0.247519 0.247694 0.247608 0.24406 0.203963 0.17889 0.178577 
0.178572 0.178574 0.178572 0.178573 0.178573 0.178573 0.178573 0.178573 0.178573 
0.247441 0.247521 0.247652 0.247818 0.247915 0.248129 0.248131 0.245152 0.207364 
0.178995 0.178573 0.178575 0.178573 0.178573 0.178573 0.178573 0.178573 0.178573 
0.178573 0.178573 0.247665 0.247761 0.247919 0.248114 0.248221 0.248419 0.248461 
0.24602 0.211295 0.179163 0.178564 0.178578 0.178571 0.178573 0.178573 0.178573 
0.178573 0.178573 0.178573 0.178573 0.247897 0.24802 0.24819 0.248413 0.24854 
0.24874 0.24883 0.246677 0.215473 0.179379 0.178555 0.178581 0.17857 0.178574 
0.178572 0.178573 0.178573 0.178573 0.178573 0.178573 0.248196 0.248305 0.248466 
0.248658 0.248757 0.24889 0.248956 0.247204 0.219755 0.179652 0.178551 0.178583 
0.178568 0.178575 0.178572 0.178573 0.178573 0.178573 0.178573 0.178573 0.248398 
0.248526 0.248694 0.248908 0.249024 0.2491 0.249121 0.247536 0.223813 0.180042 
0.178555 0.178583 0.178568 0.178576 0.178572 0.178573 0.178573 0.178573 0.178573 
0.178573 0.248611 0.24874 0.248894 0.249108 0.249228 0.249294 0.249307 0.247958 
0.227411 0.180581 0.178567 0.17858 0.178568 0.178576 0.178571 0.178574 0.178573 
0.178573 0.178573 0.178573 0.248844 0.249042 0.249207 0.249418 0.249539 0.249576 
0.249536 0.248259 0.230453 0.181234 0.178579 0.178577 0.17857 0.178576 0.178571 
0.178574 0.178573 0.178573 0.178573 0.178573 0.249046 0.249415 0.249662 0.249892 
0.25001 0.249986 0.249833 0.248542 0.23285 0.181934 0.17859 0.178575 0.17857 
0.178576 0.178571 0.178574 0.178572 0.178573 0.178573 0.178573 0.249186 0.24981 
0.250228 0.250545 0.250687 0.250612 0.250334 0.248977 0.234308 0.182638 0.178594 
0.178575 0.178569 0.178576 0.178571 0.178574 0.178572 0.178573 0.178573 0.178573 
0.24933 0.25029 0.250958 0.251397 0.25153 0.251352 0.250923 0.24945 0.23527 
0.183262 0.178596 0.178577 0.17857 0.178575 0.178571 0.178574 0.178572 0.178573 
0.178573 0.178573 0.249378 0.250857 0.251889 0.252509 0.252616 0.252255 0.251636 
0.249931 0.235814 0.183728 0.178594 0.178577 0.178571 0.178574 0.178572 0.178574 
0.178573 0.178573 0.178573 0.178573 0.249229 0.251542 0.25307 0.253885 0.253902 
0.253251 0.252342 0.250291 0.236241 0.183951 0.17859 0.178577 0.178571 0.178574 
0.178572 0.178574 0.178573 0.178573 0.178573 0.178573 0.248641 0.252494 0.254606 
0.255543 0.255366 0.25432 0.253028 0.250637 0.236359 0.184017 0.178584 0.178578 
0.178571 0.178574 0.178572 0.178574 0.178573 0.178573 0.178573 0.178573 0.247511 
0.253764 0.256649 0.257458 0.256954 0.255398 0.253682 0.250918 0.236298 0.183892 
0.178587 0.178578 0.178571 0.178574 0.178572 0.178574 0.178573 0.178573 0.178573 
0.178573 0.245423 0.255366 0.259348 0.259551 0.258565 0.256432 0.254279 0.25118 
0.235988 0.183666 0.178595 0.178577 0.178571 0.178574 0.178572 0.178574 0.178573 
0.178573 0.178573 0.178573 0.241904 0.25753 0.262571 0.261807 0.26013 0.257362 
0.25478 0.251352 0.23556 0.183396 0.178597 0.178576 0.17857 0.178575 0.178572 
0.178574 0.178573 0.178573 0.178573 0.178573 0.235813 0.26074 0.266181 0.26413 
0.261549 0.258142 0.255184 0.251441 0.235012 0.183082 0.178596 0.178575 0.17857 
0.178575 0.178572 0.178574 0.178573 0.178573 0.178573 0.178573 0.227141 0.26566 
0.270032 0.266317 0.262769 0.258779 0.255504 0.25148 0.234451 0.182769 0.178596 
0.178575 0.17857 0.178575 0.178572 0.178574 0.178573 0.178573 0.178573 0.178573 
0.217694 0.274506 0.274091 0.268288 0.263711 0.259218 0.255687 0.25144 0.233732 
0.182493 0.178595 0.178574 0.178571 0.178575 0.178572 0.178574 0.178573 0.178573 
0.178573 0.178573 0.334076 0.289592 0.277739 0.269288 0.263896 0.258968 0.255263 
0.250338 0.225561 0.180007 0.178556 0.178582 0.178567 0.178576 0.178571 0.178574 
0.178573 0.178573 0.178573 0.178573 0.218216 0.274401 0.273709 0.267856 0.263174 
0.258602 0.255112 0.250395 0.226115 0.180074 0.178556 0.178583 0.178566 0.178577 
0.178571 0.178574 0.178573 0.178573 0.178573 0.178573 0.227701 0.265573 0.269681 
0.265908 0.26224 0.258174 0.254953 0.250523 0.227006 0.180182 0.178559 0.178583 
0.178567 0.178576 0.178571 0.178574 0.178573 0.178573 0.178573 0.178573 0.236144 
0.260567 0.265837 0.263731 0.261022 0.25756 0.254679 0.250551 0.227758 0.1803 
0.178562 0.178583 0.178567 0.178576 0.178571 0.178574 0.178573 0.178573 0.178573 
0.178573 0.242067 0.257386 0.262253 0.261424 0.259616 0.256821 0.254339 0.250541 
0.228473 0.180433 0.178564 0.178582 0.178567 0.178576 0.178571 0.178574 0.178573 
0.178573 0.178573 0.178573 0.245522 0.255228 0.259059 0.259189 0.258077 0.255949 
0.253901 0.250423 0.229023 0.180571 0.178565 0.178583 0.178567 0.178576 0.178571 
0.178574 0.178573 0.178573 0.178573 0.178573 0.247517 0.253645 0.256415 0.257132 
0.256516 0.254994 0.253377 0.25022 0.229373 0.180702 0.178559 0.178584 0.178567 
0.178576 0.178571 0.178574 0.178573 0.178573 0.178573 0.178573 0.248586 0.252421 
0.254408 0.255266 0.255013 0.254016 0.252796 0.249988 0.229394 0.180767 0.178555 
0.178586 0.178566 0.178576 0.178571 0.178574 0.178573 0.178573 0.178573 0.178573 
0.249159 0.251488 0.252903 0.253672 0.253653 0.253059 0.252165 0.249707 0.229124 
0.180701 0.178559 0.178586 0.178566 0.178577 0.178571 0.178574 0.178573 0.178573 
0.178573 0.178573 0.249358 0.250796 0.251754 0.252361 0.252464 0.252147 0.251503 
0.249386 0.228498 0.180551 0.178564 0.178585 0.178566 0.178577 0.178571 0.178574 
0.178573 0.178573 0.178573 0.178573 0.249311 0.25022 0.250861 0.251319 0.251467 
0.251327 0.250891 0.249007 0.227468 0.180345 0.178566 0.178583 0.178566 0.178577 
0.178571 0.178574 0.178573 0.178573 0.178573 0.178573 0.249173 0.249761 0.250195 
0.250539 0.250683 0.250623 0.250324 0.248568 0.22596 0.180102 0.178563 0.178581 
0.178567 0.178577 0.178571 0.178574 0.178573 0.178573 0.178573 0.178573 0.249 
0.249361 0.249656 0.249923 0.250049 0.25005 0.249874 0.248173 0.223881 0.179829 
0.178554 0.178581 0.178567 0.178576 0.178571 0.178574 0.178573 0.178573 0.178573 
0.178573 0.248761 0.248976 0.24921 0.249457 0.249584 0.249648 0.249559 0.247813 
0.221137 0.179556 0.178549 0.178582 0.178568 0.178575 0.178572 0.178574 0.178573 
0.178573 0.178573 0.178573 0.248471 0.248639 0.24887 0.249131 0.249267 0.249391 
0.249376 0.247506 0.217743 0.179338 0.178554 0.178582 0.178569 0.178575 0.178572 
0.178573 0.178573 0.178573 0.178573 0.178573 0.248254 0.248417 0.248641 0.248889 
0.249013 0.249178 0.249204 0.247011 0.21394 0.179144 0.178562 0.178579 0.17857 
0.178574 0.178573 0.178573 0.178573 0.178573 0.178573 0.178573 0.248025 0.248162 
0.248354 0.248573 0.248712 0.248942 0.249001 0.246551 0.209861 0.179006 0.178569 
0.178577 0.178572 0.178573 0.178573 0.178573 0.178573 0.178573 0.178573 0.178573 
0.247852 0.247957 0.248123 0.248322 0.248455 0.248714 0.248752 0.245636 0.205668 
0.178927 0.178572 0.178575 0.178573 0.178573 0.178573 0.178573 0.178573 0.178573 
0.178573 0.178573 0.247683 0.247758 0.247886 0.248037 0.24815 0.24841 0.24845 
0.244622 0.201749 0.178865 0.178574 0.178574 0.178573 0.178572 0.178573 0.178573 
0.178573 0.178573 0.178573 0.178573 0.24757 0.247586 0.247677 0.247759 0.247817 
0.248022 0.247945 0.243411 0.198206 0.178811 0.178575 0.178572 0.178574 0.178572 
0.178573 0.178573 0.178573 0.178573 0.178573 0.178573 0.247306 0.247304 0.247371 
0.247432 0.247474 0.247624 0.247399 0.242033 0.19528 0.178761 0.178576 0.178572 
0.178574 0.178573 0.178573 0.178573 0.178573 0.178573 0.178573 0.178573 0.247138 
0.247112 0.24715 0.247137 0.247051 0.246998 0.246495 0.24033 0.19327 0.178732 
0.178573 0.178574 0.178573 0.178573 0.178573 0.178573 0.178573 0.178573 0.178573 
0.178573 0.246778 0.246677 0.246601 0.246464 0.246238 0.246069 0.245508 0.239173 
0.192268 0.178725 0.17857 0.178576 0.178572 0.178574 0.178573 0.178573 0.178573 
0.178573 0.178573 0.178573 0.246178 0.245975 0.245813 0.2456 0.245325 0.245169 
0.244651 0.23833 0.191993 0.17872 0.178571 0.178575 0.178572 0.178573 0.178573 
0.178573 0.178573 0.178573 0.178573 0.178573 0.24529 0.245098 0.244967 0.244836 
0.244693 0.24471 0.244389 0.238316 0.191939 0.178717 0.178572 0.178574 0.178572 
0.178573 0.178573 0.178573 0.178573 0.178573 0.178573 0.178573 0.244754 0.244634 
0.244602 0.244557 0.244495 0.244578 0.244274 0.23813 0.191929 0.178717 0.178572 
0.178574 0.178573 0.178573 0.178573 0.178573 0.178573 0.178573 0.178573 0.178573 
0.244488 0.244444 0.244468 0.244484 0.24448 0.244609 0.244361 0.238301 0.191889 
0.178716 0.178572 0.178574 0.178572 0.178573 0.178573 0.178573 0.178573 0.178573 
0.178573 0.178573 0.244548 0.244511 0.244547 0.244551 0.24452 0.244613 0.244305 
0.238126 0.191868 0.178716 0.178572 0.178574 0.178572 0.178573 0.178573 0.178573 
0.178573 0.178573 0.178573 0.178573 0.244486 0.244461 0.244496 0.244517 0.244512 
0.244635 0.244377 0.238281 0.191826 0.178715 0.178572 0.178574 0.178572 0.178573 
0.178573 0.178573 0.178573 0.178573 0.178573 0.178573 0.244561 0.244505 0.244529 
0.244528 0.244498 0.244598 0.244296 0.238097 0.191821 0.178715 0.178572 0.178574 
0.178572 0.178573 0.178573 0.178573 0.178573 0.178573 0.178573 0.178573 0.244703 
0.244594 0.244559 0.244529 0.24449 0.2446 0.244342 0.238239 0.191789 0.178714 
0.178572 0.178574 0.178572 0.178573 0.178573 0.178573 0.178573 0.178573 0.178573 
0.178573 0.245359 0.245158 0.245031 0.244884 0.244717 0.244706 0.244329 0.238054 
0.191765 0.178714 0.178572 0.178574 0.178572 0.178573 0.178573 0.178573 0.178573 
0.178573 0.178573 0.178573 0.24614 0.245943 0.245779 0.245579 0.245328 0.245199 
0.244729 0.238418 0.191759 0.178715 0.178571 0.178575 0.178572 0.178573 0.178573 
0.178573 0.178573 0.178573 0.178573 0.178573 0.246842 0.246734 0.246659 0.246512 
0.246268 0.24607 0.245453 0.238889 0.192022 0.178721 0.178569 0.178576 0.178572 
0.178574 0.178573 0.178573 0.178573 0.178573 0.178573 0.178573 0.247109 0.247086 
0.247116 0.247103 0.247027 0.246994 0.246526 0.240315 0.192968 0.178728 0.178572 
0.178574 0.178573 0.178573 0.178573 0.178573 0.178573 0.178573 0.178573 0.178573 
0.247371 0.247359 0.247432 0.247485 0.24751 0.247637 0.247351 0.241837 0.194931 
0.178752 0.178577 0.178571 0.178574 0.178573 0.178573 0.178573 0.178573 0.178573 
0.178573 0.178573 0.247554 0.247573 0.247656 0.247743 0.247812 0.248045 0.247984 
0.243418 0.197788 0.178805 0.178576 0.178572 0.178574 0.178572 0.178573 0.178573 
0.178573 0.178573 0.178573 0.178573 0.247733 0.24779 0.247922 0.248063 0.24816 
0.248404 0.248419 0.244541 0.201311 0.178858 0.178574 0.178573 0.178574 0.178572 
0.178573 0.178573 0.178573 0.178573 0.178573 0.178573 0.247846 0.247946 0.248103 
0.248301 0.248441 0.248722 0.24879 0.24566 0.205259 0.178919 0.178572 0.178575 
0.178573 0.178573 0.178573 0.178573 0.178573 0.178573 0.178573 0.178573 0.248061 
0.248195 0.248387 0.248604 0.248734 0.248954 0.248998 0.246409 0.209415 0.178998 
0.178569 0.178577 0.178572 0.178573 0.178573 0.178573 0.178573 0.178573 0.178573 
0.178573 0.248239 0.248404 0.248624 0.248872 0.249 0.249176 0.249204 0.247093 
0.213522 0.179125 0.178563 0.178579 0.17857 0.178574 0.178573 0.178573 0.178573 
0.178573 0.178573 0.178573 0.24849 0.24866 0.248892 0.24915 0.249282 0.249402 
0.249377 0.247439 0.217315 0.179316 0.178555 0.178581 0.178569 0.178575 0.178572 
0.178573 0.178573 0.178573 0.178573 0.178573 0.248767 0.248979 0.249213 0.249461 
0.24959 0.249659 0.249573 0.247823 0.22072 0.179528 0.178549 0.178582 0.178568 
0.178575 0.178572 0.178574 0.178573 0.178573 0.178573 0.178573 0.249013 0.249371 
0.249669 0.24994 0.250066 0.250059 0.249866 0.248129 0.223503 0.179785 0.178552 
0.178581 0.178568 0.178576 0.178571 0.178574 0.178573 0.178573 0.178573 0.178573 
0.249171 0.24975 0.250184 0.250532 0.250683 0.250629 0.250334 0.248564 0.225611 
0.18005 0.178561 0.178581 0.178567 0.178577 0.178571 0.178574 0.178573 0.178573 
0.178573 0.178573 0.249313 0.250214 0.250859 0.251317 0.251464 0.251326 0.250888 
0.248987 0.227151 0.180286 0.178565 0.178583 0.178566 0.178577 0.178571 0.178574 
0.178573 0.178573 0.178573 0.178573 0.249363 0.250781 0.251746 0.252347 0.252444 
0.252136 0.251499 0.249384 0.228192 0.18049 0.178562 0.178585 0.178565 0.178577 
0.178571 0.178574 0.178573 0.178573 0.178573 0.178573 0.249186 0.251472 0.252902 
0.253664 0.253638 0.253041 0.252161 0.249674 0.228843 0.180635 0.178558 0.178586 
0.178566 0.178577 0.178571 0.178574 0.178573 0.178573 0.178573 0.178573 0.2486 
0.252415 0.254401 0.255258 0.254995 0.253997 0.252786 0.249949 0.22913 0.180704 
0.178554 0.178586 0.178566 0.178576 0.178571 0.178574 0.178573 0.178573 0.178573 
0.178573 0.247512 0.253667 0.25641 0.257127 0.256501 0.254979 0.253367 0.250191 
0.229086 0.180647 0.178557 0.178585 0.178567 0.178576 0.178571 0.178574 0.178573 
0.178573 0.178573 0.178573 0.245517 0.255264 0.259062 0.259183 0.258062 0.255933 
0.253884 0.250391 0.228747 0.180517 0.178563 0.178583 0.178567 0.178576 0.178571 
0.178574 0.178573 0.178573 0.178573 0.178573 0.242094 0.257436 0.262259 0.261416 
0.259598 0.256804 0.254322 0.250512 0.22819 0.180384 0.178563 0.178583 0.178567 
0.178576 0.178571 0.178574 0.178573 0.178573 0.178573 0.178573 0.236146 0.260657 
0.265845 0.263721 0.261001 0.257539 0.25466 0.250518 0.227481 0.180254 0.178561 
0.178583 0.178566 0.178576 0.178571 0.178574 0.178573 0.178573 0.178573 0.178573 
0.227619 0.265592 0.269681 0.265896 0.262215 0.258151 0.254933 0.250493 0.226721 
0.180139 0.178558 0.178583 0.178566 0.178577 0.178571 0.178574 0.178573 0.178573 
0.178573 0.178573 0.218314 0.274385 0.273713 0.267845 0.263147 0.258573 0.255091 
0.250365 0.225838 0.180034 0.178555 0.178583 0.178566 0.178577 0.178571 0.178574 