# vtk DataFile Version 5.1
vtk output
ASCII
DATASET STRUCTURED_GRID
DIMENSIONS 13 16 24
POINTS 4992 float
6.18858 0.982995 -0.148191 6.18854 0.999433 -0.148191 6.18851 1.01374 -0.148191 
6.18848 1.02613 -0.148191 6.18845 1.03683 -0.148191 6.18843 1.04602 -0.148191 
6.18841 1.05391 -0.148191 6.18839 1.06065 -0.148191 6.18838 1.0664 -0.148191 
6.18837 1.0713 -0.148191 6.18836 1.07546 -0.148191 6.18835 1.079 -0.148191 
6.18834 1.082 -0.148191 6.22879 0.982695 -0.148191 6.22875 0.999208 -0.148191 
6.22871 1.01357 -0.148191 6.22868 1.02602 -0.148191 6.22865 1.03675 -0.148191 
6.22863 1.04597 -0.148191 6.22861 1.05387 -0.148191 6.22859 1.06062 -0.148191 
6.22858 1.06639 -0.148191 6.22857 1.07129 -0.148191 6.22856 1.07546 -0.148191 
6.22855 1.079 -0.148191 6.22854 1.082 -0.148191 6.26898 0.982396 -0.148191 
6.26894 0.998984 -0.148191 6.26891 1.01341 -0.148191 6.26887 1.0259 -0.148191 
6.26885 1.03666 -0.148191 6.26882 1.04591 -0.148191 6.2688 1.05383 -0.148191 
6.26879 1.0606 -0.148191 6.26877 1.06637 -0.148191 6.26876 1.07129 -0.148191 
6.26875 1.07546 -0.148191 6.26874 1.079 -0.148191 6.26873 1.082 -0.148191 
6.30916 0.982097 -0.148191 6.30912 0.99876 -0.148191 6.30909 1.01325 -0.148191 
6.30905 1.02578 -0.148191 6.30903 1.03658 -0.148191 6.309 1.04586 -0.148191 
6.30898 1.0538 -0.148191 6.30897 1.06058 -0.148191 6.30895 1.06636 -0.148191 
6.30894 1.07128 -0.148191 6.30893 1.07546 -0.148191 6.30892 1.079 -0.148191 
6.30891 1.082 -0.148191 6.34933 0.981799 -0.148191 6.34929 0.998536 -0.148191 
6.34925 1.01308 -0.148191 6.34922 1.02566 -0.148191 6.34919 1.0365 -0.148191 
6.34917 1.0458 -0.148191 6.34915 1.05377 -0.148191 6.34913 1.06056 -0.148191 
6.34912 1.06635 -0.148191 6.34911 1.07127 -0.148191 6.3491 1.07545 -0.148191 
6.34909 1.079 -0.148191 6.34908 1.082 -0.148191 6.38948 0.981501 -0.148191 
6.38944 0.998313 -0.148191 6.38941 1.01292 -0.148191 6.38938 1.02555 -0.148191 
6.38935 1.03642 -0.148191 6.38933 1.04575 -0.148191 6.38931 1.05373 -0.148191 
6.38929 1.06054 -0.148191 6.38928 1.06634 -0.148191 6.38926 1.07127 -0.148191 
6.38925 1.07545 -0.148191 6.38925 1.079 -0.148191 6.38924 1.082 -0.148191 
6.42962 0.981204 -0.148191 6.42958 0.998091 -0.148191 6.42954 1.01275 -0.148191 
6.42951 1.02543 -0.148191 6.42949 1.03634 -0.148191 6.42947 1.04569 -0.148191 
6.42945 1.0537 -0.148191 6.42943 1.06052 -0.148191 6.42942 1.06633 -0.148191 
6.42941 1.07127 -0.148191 6.4294 1.07545 -0.148191 6.42939 1.079 -0.148191 
6.42938 1.082 -0.148191 6.46974 0.980907 -0.148191 6.4697 0.997868 -0.148191 
6.46967 1.01259 -0.148191 6.46964 1.02531 -0.148191 6.46961 1.03626 -0.148191 
6.46959 1.04564 -0.148191 6.46958 1.05366 -0.148191 6.46956 1.0605 -0.148191 
6.46955 1.06632 -0.148191 6.46954 1.07126 -0.148191 6.46953 1.07545 -0.148191 
6.46952 1.079 -0.148191 6.46951 1.082 -0.148191 6.50984 0.980611 -0.148191 
6.5098 0.997647 -0.148191 6.50977 1.01243 -0.148191 6.50975 1.0252 -0.148191 
6.50972 1.03618 -0.148191 6.50971 1.04559 -0.148191 6.50969 1.05363 -0.148191 
6.50968 1.06048 -0.148191 6.50966 1.06631 -0.148191 6.50965 1.07126 -0.148191 
6.50964 1.07545 -0.148191 6.50964 1.079 -0.148191 6.50963 1.082 -0.148191 
6.54992 0.980316 -0.148191 6.54989 0.997425 -0.148191 6.54986 1.01227 -0.148191 
6.54984 1.02508 -0.148191 6.54982 1.03609 -0.148191 6.5498 1.04553 -0.148191 
6.54979 1.05359 -0.148191 6.54977 1.06046 -0.148191 6.54976 1.0663 -0.148191 
6.54975 1.07125 -0.148191 6.54974 1.07545 -0.148191 6.54974 1.079 -0.148191 
6.54973 1.082 -0.148191 6.58999 0.980021 -0.148191 6.58996 0.997205 -0.148191 
6.58994 1.0121 -0.148191 6.58991 1.02496 -0.148191 6.58989 1.03601 -0.148191 
6.58988 1.04548 -0.148191 6.58987 1.05356 -0.148191 6.58985 1.06044 -0.148191 
6.58985 1.06629 -0.148191 6.58984 1.07125 -0.148191 6.58983 1.07545 -0.148191 
6.58982 1.079 -0.148191 6.58982 1.082 -0.148191 6.63003 0.979727 -0.148191 
6.63001 0.996984 -0.148191 6.62999 1.01194 -0.148191 6.62997 1.02485 -0.148191 
6.62995 1.03593 -0.148191 6.62994 1.04543 -0.148191 6.62993 1.05352 -0.148191 
6.62992 1.06042 -0.148191 6.62991 1.06628 -0.148191 6.62991 1.07124 -0.148191 
6.6299 1.07545 -0.148191 6.62989 1.079 -0.148191 6.62989 1.082 -0.148191 
6.67006 0.979433 -0.148191 6.67004 0.996765 -0.148191 6.67002 1.01178 -0.148191 
6.67001 1.02473 -0.148191 6.67 1.03585 -0.148191 6.66998 1.04537 -0.148191 
6.66998 1.05349 -0.148191 6.66997 1.0604 -0.148191 6.66996 1.06627 -0.148191 
6.66996 1.07124 -0.148191 6.66995 1.07544 -0.148191 6.66995 1.079 -0.148191 
6.66994 1.082 -0.148191 6.71006 0.97914 -0.148191 6.71005 0.996545 -0.148191 
6.71004 1.01162 -0.148191 6.71003 1.02462 -0.148191 6.71002 1.03577 -0.148191 
6.71001 1.04532 -0.148191 6.71 1.05346 -0.148191 6.71 1.06038 -0.148191 
6.70999 1.06626 -0.148191 6.70999 1.07123 -0.148191 6.70999 1.07544 -0.148191 
6.70998 1.079 -0.148191 6.70998 1.082 -0.148191 6.75004 0.978848 -0.148191 
6.75003 0.996327 -0.148191 6.75003 1.01146 -0.148191 6.75002 1.0245 -0.148191 
6.75002 1.0357 -0.148191 6.75002 1.04527 -0.148191 6.75001 1.05342 -0.148191 
6.75001 1.06036 -0.148191 6.75001 1.06624 -0.148191 6.75 1.07123 -0.148191 
6.75 1.07544 -0.148191 6.75 1.079 -0.148191 6.75 1.082 -0.148191 
6.79 0.978556 -0.148191 6.79 0.996109 -0.148191 6.79 1.0113 -0.148191 
6.79 1.02439 -0.148191 6.79 1.03562 -0.148191 6.79 1.04521 -0.148191 
6.79 1.05339 -0.148191 6.79 1.06034 -0.148191 6.79 1.06623 -0.148191 
6.79 1.07122 -0.148191 6.79 1.07544 -0.148191 6.79 1.079 -0.148191 
6.79 1.082 -0.148191 6.18858 0.982995 -0.182417 6.18854 0.999433 -0.182417 
6.18851 1.01374 -0.182417 6.18848 1.02613 -0.182417 6.18845 1.03683 -0.182417 
6.18843 1.04602 -0.182417 6.18841 1.05391 -0.182417 6.18839 1.06065 -0.182417 
6.18838 1.0664 -0.182417 6.18837 1.0713 -0.182417 6.18836 1.07546 -0.182417 
6.18835 1.079 -0.182417 6.18834 1.082 -0.182417 6.22879 0.982695 -0.182417 
6.22875 0.999208 -0.182417 6.22871 1.01357 -0.182417 6.22868 1.02602 -0.182417 
6.22865 1.03675 -0.182417 6.22863 1.04597 -0.182417 6.22861 1.05387 -0.182417 
6.22859 1.06062 -0.182417 6.22858 1.06639 -0.182417 6.22857 1.07129 -0.182417 
6.22856 1.07546 -0.182417 6.22855 1.079 -0.182417 6.22854 1.082 -0.182417 
6.26898 0.982396 -0.182417 6.26894 0.998984 -0.182417 6.26891 1.01341 -0.182417 
6.26887 1.0259 -0.182417 6.26885 1.03666 -0.182417 6.26882 1.04591 -0.182417 
6.2688 1.05383 -0.182417 6.26878 1.0606 -0.182417 6.26877 1.06637 -0.182417 
6.26876 1.07129 -0.182417 6.26875 1.07546 -0.182417 6.26874 1.079 -0.182417 
6.26873 1.082 -0.182417 6.30916 0.982097 -0.182417 6.30912 0.99876 -0.182417 
6.30909 1.01325 -0.182417 6.30905 1.02578 -0.182417 6.30903 1.03658 -0.182417 
6.309 1.04586 -0.182417 6.30898 1.0538 -0.182417 6.30897 1.06058 -0.182417 
6.30895 1.06636 -0.182417 6.30894 1.07128 -0.182417 6.30893 1.07546 -0.182417 
6.30892 1.079 -0.182417 6.30891 1.082 -0.182417 6.34933 0.981799 -0.182417 
6.34929 0.998536 -0.182417 6.34925 1.01308 -0.182417 6.34922 1.02566 -0.182417 
6.34919 1.0365 -0.182417 6.34917 1.0458 -0.182417 6.34915 1.05377 -0.182417 
6.34913 1.06056 -0.182417 6.34912 1.06635 -0.182417 6.34911 1.07127 -0.182417 
6.3491 1.07545 -0.182417 6.34909 1.079 -0.182417 6.34908 1.082 -0.182417 
6.38948 0.981501 -0.182417 6.38944 0.998313 -0.182417 6.38941 1.01292 -0.182417 
6.38938 1.02555 -0.182417 6.38935 1.03642 -0.182417 6.38933 1.04575 -0.182417 
6.38931 1.05373 -0.182417 6.38929 1.06054 -0.182417 6.38928 1.06634 -0.182417 
6.38926 1.07127 -0.182417 6.38925 1.07545 -0.182417 6.38925 1.079 -0.182417 
6.38924 1.082 -0.182417 6.42962 0.981204 -0.182417 6.42958 0.998091 -0.182417 
6.42954 1.01275 -0.182417 6.42951 1.02543 -0.182417 6.42949 1.03634 -0.182417 
6.42947 1.04569 -0.182417 6.42945 1.0537 -0.182417 6.42943 1.06052 -0.182417 
6.42942 1.06633 -0.182417 6.42941 1.07127 -0.182417 6.4294 1.07545 -0.182417 
6.42939 1.079 -0.182417 6.42938 1.082 -0.182417 6.46974 0.980907 -0.182417 
6.4697 0.997868 -0.182417 6.46967 1.01259 -0.182417 6.46964 1.02531 -0.182417 
6.46961 1.03626 -0.182417 6.46959 1.04564 -0.182417 6.46958 1.05366 -0.182417 
6.46956 1.0605 -0.182417 6.46955 1.06632 -0.182417 6.46954 1.07126 -0.182417 
6.46953 1.07545 -0.182417 6.46952 1.079 -0.182417 6.46951 1.082 -0.182417 
6.50984 0.980611 -0.182417 6.5098 0.997647 -0.182417 6.50977 1.01243 -0.182417 
6.50975 1.0252 -0.182417 6.50972 1.03618 -0.182417 6.50971 1.04559 -0.182417 
6.50969 1.05363 -0.182417 6.50968 1.06048 -0.182417 6.50966 1.06631 -0.182417 
6.50965 1.07126 -0.182417 6.50964 1.07545 -0.182417 6.50964 1.079 -0.182417 
6.50963 1.082 -0.182417 6.54992 0.980316 -0.182417 6.54989 0.997425 -0.182417 
6.54986 1.01227 -0.182417 6.54984 1.02508 -0.182417 6.54982 1.03609 -0.182417 
6.5498 1.04553 -0.182417 6.54979 1.05359 -0.182417 6.54977 1.06046 -0.182417 
6.54976 1.0663 -0.182417 6.54975 1.07125 -0.182417 6.54974 1.07545 -0.182417 
6.54974 1.079 -0.182417 6.54973 1.082 -0.182417 6.58999 0.980021 -0.182417 
6.58996 0.997205 -0.182417 6.58994 1.0121 -0.182417 6.58991 1.02496 -0.182417 
6.58989 1.03601 -0.182417 6.58988 1.04548 -0.182417 6.58987 1.05356 -0.182417 
6.58985 1.06044 -0.182417 6.58985 1.06629 -0.182417 6.58984 1.07125 -0.182417 
6.58983 1.07545 -0.182417 6.58982 1.079 -0.182417 6.58982 1.082 -0.182417 
6.63003 0.979727 -0.182417 6.63001 0.996984 -0.182417 6.62999 1.01194 -0.182417 
6.62997 1.02485 -0.182417 6.62995 1.03593 -0.182417 6.62994 1.04543 -0.182417 
6.62993 1.05352 -0.182417 6.62992 1.06042 -0.182417 6.62991 1.06628 -0.182417 
6.62991 1.07124 -0.182417 6.6299 1.07545 -0.182417 6.62989 1.079 -0.182417 
6.62989 1.082 -0.182417 6.67006 0.979433 -0.182417 6.67004 0.996765 -0.182417 
6.67002 1.01178 -0.182417 6.67001 1.02473 -0.182417 6.67 1.03585 -0.182417 
6.66998 1.04537 -0.182417 6.66998 1.05349 -0.182417 6.66997 1.0604 -0.182417 
6.66996 1.06627 -0.182417 6.66996 1.07124 -0.182417 6.66995 1.07544 -0.182417 
6.66995 1.079 -0.182417 6.66994 1.082 -0.182417 6.71006 0.97914 -0.182417 
6.71005 0.996545 -0.182417 6.71004 1.01162 -0.182417 6.71003 1.02462 -0.182417 
[...]
POINT_DATA 4992
FIELD FieldData 5
pressure 1 4992 float
0.136374 0.138238 0.140449 0.142387 0.144099 0.145274 0.146333 0.146917 0.147513 
0.147751 0.14822 0.14784 0.147707 0.154693 0.155314 0.15526 0.155093 0.154878 
0.154661 0.154429 0.154345 0.154177 0.154214 0.154193 0.154038 0.153777 0.158934 
0.158926 0.15884 0.158597 0.158261 0.158027 0.157926 0.157836 0.157858 0.157673 
0.157822 0.157537 0.157383 0.162735 0.162721 0.162394 0.162028 0.161571 0.161374 
0.161136 0.161134 0.160916 0.16105 0.160855 0.160957 0.160816 0.16667 0.165768 
0.165212 0.1645 0.164163 0.163748 0.163692 0.163418 0.163654 0.163366 0.163794 
0.163616 0.163678 0.169586 0.168275 0.166937 0.166315 0.16563 0.165484 0.165099 
0.165378 0.165022 0.16575 0.165281 0.165832 0.16586 0.172342 0.169961 0.168789 
0.167739 0.167449 0.166963 0.167234 0.166871 0.167675 0.167176 0.167962 0.167973 
0.168171 0.174139 0.172094 0.170337 0.169665 0.168847 0.168951 0.16847 0.169196 
0.168631 0.169562 0.169184 0.169858 0.169848 0.176375 0.173694 0.17249 0.1713 
0.171226 0.170664 0.171302 0.170769 0.171642 0.171258 0.171866 0.171777 0.171962 
0.17802 0.176077 0.174371 0.173964 0.173212 0.173644 0.173119 0.173837 0.173428 
0.17394 0.173779 0.174024 0.173974 0.180262 0.178023 0.177193 0.176172 0.176366 
0.175821 0.17632 0.175921 0.176308 0.176149 0.176328 0.176277 0.176321 0.181933 
0.180774 0.179466 0.179365 0.178759 0.178983 0.178611 0.178846 0.178676 0.178777 
0.17873 0.178764 0.17874 0.184196 0.182688 0.182318 0.181659 0.181655 0.181313 
0.181364 0.181197 0.181234 0.18118 0.181183 0.181154 0.181178 0.185913 0.185251 
0.184516 0.184311 0.183887 0.18377 0.183559 0.183488 0.183439 0.183373 0.183376 
0.183388 0.183438 0.188416 0.187363 0.186829 0.186109 0.185703 0.185265 0.185 
0.184836 0.184678 0.184646 0.184653 0.184667 0.184761 0.189995 0.188828 0.187533 
0.186533 0.18574 0.185225 0.184827 0.184563 0.184354 0.184389 0.184302 0.18455 
0.184456 0.137829 0.139756 0.14147 0.143332 0.144693 0.14602 0.14681 0.147615 
0.148005 0.148463 0.148654 0.14857 0.148466 0.15807 0.159931 0.157846 0.156773 
0.156017 0.15569 0.15553 0.155364 0.15536 0.155268 0.1554 0.155167 0.154941 
0.162184 0.164567 0.162899 0.161856 0.160907 0.160311 0.160039 0.159854 0.15975 
0.159638 0.159583 0.15942 0.159195 0.165115 0.168086 0.166998 0.166049 0.165081 
0.164454 0.16395 0.163641 0.163403 0.163212 0.163156 0.162945 0.162791 0.168018 
0.170659 0.169473 0.168284 0.167519 0.166867 0.166535 0.166206 0.166071 0.165883 
0.165827 0.165673 0.16558 0.170538 0.172401 0.170868 0.169832 0.169033 0.168658 
0.168299 0.16819 0.167983 0.167937 0.167786 0.167712 0.167623 0.1723 0.173599 
0.172178 0.171187 0.170709 0.170243 0.170151 0.169861 0.169883 0.169621 0.169646 
0.16943 0.169371 0.173951 0.174853 0.173556 0.172911 0.172269 0.17208 0.171736 
0.171716 0.171422 0.171431 0.171176 0.17111 0.171056 0.176056 0.176184 0.175263 
0.17457 0.174263 0.173867 0.173827 0.17349 0.173509 0.173208 0.173175 0.173033 
0.172968 0.178352 0.178213 0.177256 0.17678 0.176275 0.176136 0.175774 0.175738 
0.175429 0.175383 0.175206 0.175118 0.175142 0.180694 0.180492 0.179708 0.179097 
0.178771 0.178344 0.178219 0.177891 0.177796 0.177611 0.17752 0.177487 0.177436 
0.182785 0.183072 0.182264 0.181758 0.181192 0.180922 0.180546 0.180381 0.180183 
0.18006 0.180002 0.179922 0.179953 0.185092 0.185318 0.184748 0.184135 0.183701 
0.18324 0.182994 0.18273 0.182575 0.182469 0.182396 0.182376 0.182338 0.187305 
0.1876 0.186916 0.186373 0.185787 0.185419 0.185066 0.184871 0.184695 0.184618 
0.184564 0.184536 0.184524 0.190172 0.189846 0.189103 0.188208 0.187533 0.186942 
0.186594 0.186243 0.186102 0.185948 0.185896 0.1859 0.185805 0.192201 0.191197 
0.189923 0.188708 0.187707 0.187095 0.18663 0.186408 0.186216 0.186108 0.186135 
0.186127 0.186056 0.14045 0.141862 0.143555 0.144915 0.146281 0.147116 0.14804 
0.148464 0.149014 0.149176 0.149672 0.149387 0.149338 0.160152 0.161477 0.159316 
0.157702 0.156726 0.156221 0.155921 0.155852 0.155735 0.15576 0.155749 0.155612 
0.155356 0.16477 0.16726 0.165323 0.163812 0.162432 0.16167 0.161186 0.160947 
0.160837 0.160679 0.160709 0.160486 0.160308 0.167224 0.170277 0.169093 0.167927 
0.166839 0.165949 0.165369 0.164911 0.164642 0.164421 0.164296 0.164121 0.164009 
0.168983 0.171448 0.170174 0.169053 0.168132 0.167665 0.167189 0.167049 0.166812 
0.166761 0.166605 0.166541 0.166425 0.170089 0.171835 0.170473 0.169443 0.16898 
0.168558 0.168519 0.168307 0.168364 0.168169 0.168207 0.167981 0.167916 0.170709 
0.172147 0.170979 0.170449 0.169927 0.169921 0.169685 0.169793 0.16958 0.169672 
0.169383 0.169356 0.169148 0.171516 0.172825 0.17214 0.171635 0.171598 0.171314 
0.17146 0.171209 0.171363 0.171013 0.171076 0.170737 0.170652 0.173327 0.174386 
0.173732 0.173615 0.173244 0.173367 0.173081 0.173239 0.17287 0.172974 0.172542 
0.172479 0.172366 0.17604 0.17655 0.176052 0.175621 0.175585 0.175262 0.175382 
0.174999 0.175117 0.174656 0.174638 0.174409 0.174341 0.178959 0.179416 0.178656 
0.178373 0.177884 0.177882 0.177465 0.177528 0.177084 0.177061 0.176793 0.176702 
0.176704 0.181895 0.182233 0.181561 0.180953 0.180703 0.180212 0.180154 0.179705 
0.179641 0.179346 0.179253 0.179193 0.179156 0.18461 0.185193 0.184312 0.183829 
0.183169 0.182947 0.182455 0.18232 0.182016 0.181883 0.181825 0.181712 0.181801 
0.187268 0.187464 0.186731 0.185998 0.185547 0.184976 0.184725 0.184369 0.184201 
0.18407 0.183972 0.184004 0.183961 0.190154 0.190092 0.188962 0.188171 0.187329 
0.186886 0.18641 0.186201 0.185965 0.185877 0.185844 0.185838 0.185867 0.192327 
0.191536 0.190299 0.189187 0.18835 0.187684 0.187297 0.18695 0.186815 0.186714 
0.186669 0.186718 0.18662 0.142664 0.143932 0.144999 0.146293 0.147128 0.14807 
0.148491 0.149098 0.149237 0.149636 0.149665 0.1497 0.149601 0.160098 0.16257 
0.159615 0.158147 0.156964 0.156393 0.156034 0.155795 0.155753 0.155612 0.155684 
0.155506 0.155353 0.16578 0.168814 0.166376 0.164617 0.163059 0.162085 0.161454 
0.161108 0.160862 0.16076 0.160657 0.160561 0.160414 0.168418 0.17127 0.170295 
0.168927 0.167502 0.166441 0.165546 0.165016 0.164585 0.164348 0.164182 0.164045 
0.163973 0.169486 0.171523 0.170263 0.168967 0.168032 0.167242 0.16685 0.166412 
0.166304 0.16606 0.166041 0.165889 0.165842 0.169483 0.170805 0.169502 0.168552 
0.16787 0.16762 0.167273 0.167293 0.167062 0.167127 0.166927 0.166892 0.166732 
0.169099 0.170243 0.169316 0.168668 0.16853 0.168221 0.168344 0.16811 0.168268 
0.168002 0.168062 0.167811 0.167754 0.16944 0.170619 0.170083 0.169992 0.169656 
0.169831 0.169577 0.169799 0.169496 0.169638 0.169269 0.169232 0.169123 0.170984 
0.172059 0.171835 0.171536 0.171655 0.171371 0.1716 0.17126 0.171456 0.17101 
0.171025 0.170781 0.170738 0.173579 0.174485 0.173969 0.173917 0.173559 0.17374 
0.173398 0.173618 0.173173 0.173244 0.172916 0.172844 0.17287 0.176821 0.177294 
0.176803 0.176297 0.176251 0.175858 0.175994 0.17554 0.175618 0.175206 0.175163 
0.175075 0.175069 0.180021 0.180539 0.1797 0.179354 0.178802 0.178793 0.178325 
0.178369 0.177945 0.1779 0.177778 0.177723 0.177809 0.183332 0.183518 0.182794 
0.18208 0.181785 0.181212 0.181147 0.180653 0.180587 0.180369 0.180278 0.180333 
0.180316 0.186121 0.186359 0.185372 0.184799 0.184052 0.183834 0.183293 0.183168 
0.182904 0.182791 0.182807 0.182738 0.182901 0.189216 0.188858 0.187804 0.186851 
0.186309 0.185622 0.185375 0.185018 0.184876 0.1848 0.184713 0.184826 0.18479 
0.191494 0.190698 0.189377 0.188419 0.187482 0.187001 0.186522 0.186311 0.186151 
0.186089 0.186102 0.186138 0.186238 0.145712 0.146142 0.147144 0.147903 0.148781 
0.149205 0.14984 0.149989 0.150492 0.150495 0.151025 0.150928 0.150965 0.161511 
0.162561 0.160368 0.158615 0.157557 0.15684 0.156446 0.156163 0.155987 0.155848 
0.15578 0.155657 0.155524 0.166476 0.168702 0.1668 0.164905 0.1633 0.162229 
0.161566 0.161107 0.160921 0.160698 0.160741 0.160547 0.160476 0.168493 0.171063 
0.169888 0.168558 0.167201 0.166043 0.165213 0.164535 0.164158 0.163855 0.163694 
0.163586 0.163586 0.16877 0.170671 0.169524 0.168261 0.167195 0.16652 0.165868 
0.165599 0.165265 0.165182 0.165042 0.165002 0.16497 0.168156 0.169489 0.168354 
0.167322 0.166794 0.166257 0.166139 0.165815 0.165835 0.165623 0.165644 0.165527 
0.165494 0.167555 0.168678 0.167824 0.167378 0.166919 0.166948 0.166614 0.166752 
0.166465 0.16657 0.166379 0.166354 0.166376 0.167795 0.168939 0.168535 0.168213 
0.168248 0.167944 0.168106 0.167768 0.167909 0.167609 0.167637 0.167503 0.167511 
0.169085 0.170434 0.170101 0.170076 0.169756 0.169949 0.169563 0.16978 0.169404 
0.169503 0.169299 0.169285 0.169344 0.171555 0.172701 0.172366 0.172018 0.172032 
0.171653 0.171786 0.171373 0.171465 0.171162 0.17113 0.171134 0.171142 0.174485 
0.175584 0.174941 0.174695 0.174228 0.174282 0.173848 0.17397 0.173612 0.173639 
0.173554 0.173568 0.173668 0.177943 0.178621 0.177931 0.177347 0.177117 0.176619 
0.176637 0.176187 0.176197 0.175999 0.175932 0.176051 0.176067 0.181223 0.181903 
0.180987 0.180432 0.179755 0.179616 0.179095 0.179081 0.178798 0.178758 0.178793 
0.178797 0.17894 0.184324 0.184661 0.183712 0.182947 0.182504 0.181837 0.181722 
0.181293 0.181235 0.181145 0.181046 0.181259 0.181247 0.187537 0.187475 0.186211 
0.185405 0.184503 0.184229 0.183721 0.183639 0.183477 0.183413 0.183509 0.183505 
0.183685 0.189694 0.189271 0.187929 0.186772 0.185968 0.18531 0.185015 0.184774 
0.184642 0.184658 0.184588 0.184809 0.184816 0.148533 0.148842 0.149282 0.149983 
0.150415 0.150964 0.151095 0.151554 0.151529 0.152076 0.151988 0.152262 0.152233 
0.161657 0.16344 0.160785 0.159388 0.15821 0.157531 0.157025 0.156673 0.156487 
0.15624 0.156259 0.156033 0.155964 0.165664 0.168154 0.166029 0.164421 0.162886 
0.161946 0.161287 0.160913 0.160618 0.160532 0.160383 0.160368 0.160303 0.166731 
0.169208 0.168356 0.167041 0.165884 0.164941 0.164148 0.163638 0.163217 0.162974 
0.162866 0.162751 0.162768 0.166761 0.168803 0.167875 0.166795 0.165971 0.165195 
0.164782 0.164295 0.164125 0.163916 0.163857 0.163817 0.163828 0.166338 0.16796 
0.167175 0.166348 0.165718 0.165415 0.164947 0.164876 0.164594 0.164589 0.164496 
0.164482 0.164558 0.16629 0.167687 0.167002 0.166431 0.166222 0.165808 0.165814 
0.165455 0.165536 0.165325 0.16535 0.165365 0.165404 0.166635 0.168274 0.167856 
0.167549 0.167199 0.167232 0.166844 0.166983 0.166702 0.166774 0.166723 0.166771 
0.166834 0.168184 0.169776 0.169311 0.169033 0.168957 0.168561 0.168667 0.168293 
0.168385 0.168207 0.168217 0.16832 0.168378 0.170132 0.171855 0.171449 0.171102 
0.170713 0.170725 0.170352 0.170434 0.170215 0.170238 0.170278 0.17033 0.170432 
0.172969 0.174466 0.173816 0.173346 0.173128 0.172688 0.172703 0.172368 0.172399 
0.172285 0.172265 0.172419 0.17245 0.175958 0.177448 0.176657 0.176079 0.175523 
0.175393 0.174994 0.17501 0.174813 0.174804 0.174883 0.174914 0.175059 0.179144 
0.180363 0.179412 0.178692 0.178284 0.177741 0.17768 0.177328 0.17731 0.177256 
0.177187 0.177411 0.177444 0.182374 0.183305 0.182159 0.181366 0.180625 0.180414 
0.179948 0.179906 0.179758 0.179694 0.179845 0.179859 0.180026 0.185355 0.185742 
0.184429 0.183415 0.182877 0.182243 0.182104 0.181819 0.181756 0.181767 0.181697 
0.181962 0.181974 0.187685 0.187084 0.18557 0.184463 0.183653 0.183274 0.18294 
0.182851 0.182786 0.182798 0.183005 0.183093 0.183358 0.151464 0.151286 0.151756 
0.152136 0.152668 0.152916 0.153407 0.153526 0.154123 0.154091 0.154647 0.154604 
0.154692 0.163204 0.164025 0.162071 0.160577 0.159563 0.158895 0.158334 0.157959 
0.157542 0.157383 0.157203 0.157142 0.156971 0.164512 0.166891 0.165505 0.163997 
0.162769 0.161933 0.16136 0.161004 0.16081 0.160629 0.160675 0.160519 0.160467 
0.164554 0.167222 0.166169 0.165268 0.16436 0.163628 0.163128 0.162667 0.162427 
0.162247 0.162119 0.162114 0.162107 0.16437 0.16697 0.166254 0.165315 0.164561 
0.164112 0.163571 0.163393 0.163111 0.163019 0.162959 0.162965 0.162997 0.164724 
0.166943 0.166098 0.165361 0.164884 0.164362 0.164192 0.163833 0.163778 0.163631 
0.163594 0.163694 0.16373 0.165118 0.167275 0.166608 0.165998 0.165505 0.165347 
0.164937 0.164931 0.164721 0.164712 0.164787 0.164847 0.164939 0.166322 0.168272 
0.167547 0.167081 0.166781 0.166358 0.166302 0.16603 0.165992 0.165987 0.165943 
0.166211 0.166227 0.167558 0.169775 0.169214 0.168623 0.1682 0.168035 0.167746 
0.167691 0.167636 0.167579 0.167813 0.167836 0.16795 0.169665 0.171662 0.170874 
0.170411 0.170023 0.169698 0.169586 0.169455 0.169379 0.16949 0.169401 0.169679 
0.169654 0.171898 0.17393 0.173204 0.172488 0.172085 0.171872 0.171676 0.171603 
0.171605 0.171538 0.17172 0.17172 0.171862 0.174629 0.176313 0.175354 0.174813 
0.174396 0.174089 0.173975 0.173845 0.173759 0.173832 0.173716 0.173982 0.173962 
0.177641 0.179088 0.178059 0.177321 0.176819 0.176621 0.17635 0.176288 0.176263 
0.176159 0.176348 0.176345 0.176484 0.180592 0.181483 0.180371 0.179643 0.179233 
0.178802 0.178693 0.178533 0.178421 0.178508 0.178426 0.178705 0.178756 0.183479 
0.183813 0.182466 0.181604 0.180954 0.180741 0.180458 0.180471 0.180425 0.180427 
0.180591 0.180677 0.180836 0.185508 0.184861 0.183276 0.182291 0.181557 0.181095 
0.180901 0.180807 0.18074 0.180905 0.180886 0.181272 0.181371 0.153677 0.153885 
0.154201 0.154867 0.155225 0.15571 0.155791 0.156183 0.156124 0.156585 0.156444 
0.156598 0.15657 0.163395 0.165004 0.16271 0.161244 0.160339 0.159588 0.159362 
0.158961 0.158963 0.158772 0.158912 0.158756 0.158683 0.162876 0.165733 0.16425 
0.163241 0.162353 0.161757 0.161389 0.161116 0.160901 0.160817 0.160677 0.160667 
0.160561 0.162388 0.165554 0.164915 0.163993 0.163309 0.162758 0.162296 0.162012 
0.161803 0.161643 0.161664 0.161579 0.161577 0.162824 0.165847 0.165005 0.164268 
0.163648 0.163092 0.162811 0.162479 0.162344 0.162275 0.162184 0.162325 0.162287 
0.163562 0.166306 0.165593 0.164751 0.164165 0.163855 0.163466 0.16334 0.163219 
0.163122 0.163286 0.163278 0.163438 0.164667 0.16709 0.166169 0.165543 0.165064 
0.164666 0.164488 0.164338 0.164195 0.164338 0.164162 0.164602 0.164502 0.165748 
0.168106 0.167426 0.166644 0.166259 0.165972 0.165831 0.165663 0.165784 0.165603 
0.166013 0.165971 0.166121 0.16741 0.169457 0.168576 0.168138 0.167658 0.167499 
0.167275 0.167354 0.167146 0.167471 0.167288 0.167655 0.167609 0.169134 0.171184 
0.170551 0.169766 0.169552 0.169239 0.169277 0.169089 0.169307 0.169157 0.169411 
0.169383 0.16949 0.171348 0.173146 0.172218 0.171911 0.171436 0.171394 0.171184 
0.171287 0.171123 0.171282 0.171163 0.171392 0.171388 0.173855 0.175546 0.174781 
0.174038 0.173825 0.17357 0.17355 0.173411 0.173488 0.173382 0.173537 0.173536 
0.173632 0.176567 0.177882 0.176865 0.176462 0.176072 0.175902 0.175738 0.175718 
0.175587 0.175696 0.175617 0.175832 0.175901 0.179461 0.180444 0.179426 0.178723 
0.178335 0.178125 0.17801 0.177929 0.177975 0.177943 0.178116 0.178193 0.178285 
0.181947 0.182376 0.181126 0.180458 0.179986 0.179721 0.179616 0.17954 0.179488 
0.179622 0.179605 0.179928 0.179975 0.184183 0.183639 0.18214 0.181089 0.180476 
0.180078 0.179962 0.179862 0.180022 0.179976 0.180441 0.180522 0.180779 0.156044 
0.156218 0.157035 0.157477 0.158185 0.15828 0.158565 0.158583 0.158763 0.158599 
0.158928 0.158574 0.158616 0.163673 0.165096 0.162659 0.161499 0.160231 0.16011 
0.159647 0.159865 0.159758 0.159931 0.159893 0.159953 0.159823 0.161485 0.164738 
0.163407 0.162497 0.161754 0.161357 0.161058 0.160845 0.160803 0.160657 0.16077 
0.160656 0.160619 0.160976 0.16467 0.163627 0.163001 0.162295 0.161903 0.161545 
0.161362 0.161186 0.161204 0.161078 0.161213 0.161107 0.16174 0.164972 0.164227 
0.163312 0.162798 0.162388 0.162128 0.16194 0.161913 0.161766 0.161968 0.161879 
0.162069 0.162848 0.165765 0.164716 0.164108 0.163512 0.16321 0.162955 0.162897 
0.162708 0.162909 0.162681 0.163153 0.163022 0.16406 0.166579 0.165893 0.165018 
0.164687 0.164333 0.164302 0.164085 0.164291 0.164074 0.164532 0.164492 0.164655 
0.165558 0.16774 0.166795 0.166423 0.165865 0.165842 0.165561 0.165755 0.165522 
0.165919 0.165754 0.166157 0.166124 0.167084 0.169162 0.168615 0.16776 0.167682 
0.167301 0.167484 0.167257 0.167586 0.167447 0.167741 0.16771 0.167776 0.168958 
0.170798 0.169916 0.16975 0.169224 0.169368 0.169103 0.169356 0.169202 0.169414 
0.169307 0.16951 0.169478 0.171069 0.172885 0.172299 0.171519 0.171529 0.171206 
0.171384 0.17123 0.171372 0.171283 0.17143 0.17139 0.171446 0.173389 0.174948 
0.174012 0.173878 0.173441 0.173521 0.173323 0.173424 0.17332 0.173436 0.173337 
0.173557 0.17356 0.176055 0.177382 0.176614 0.175942 0.175829 0.175581 0.175633 
0.175543 0.175639 0.175578 0.175759 0.175813 0.175844 0.178656 0.179601 0.178542 
0.178201 0.177802 0.177766 0.177672 0.177682 0.17763 0.177775 0.177761 0.17802 
0.178052 0.181182 0.181584 0.180557 0.17975 0.179502 0.179262 0.179225 0.179175 
0.179317 0.179295 0.179628 0.179702 0.179829 0.183336 0.183051 0.181441 0.180635 
0.179837 0.179688 0.179359 0.179553 0.179379 0.179812 0.17968 0.180258 0.180338 
0.157809 0.158749 0.159087 0.159961 0.15997 0.160217 0.160072 0.160005 0.159692 
0.159817 0.159439 0.159506 0.15941 0.162451 0.164326 0.162086 0.160195 0.159907 
0.159511 0.159883 0.159842 0.160149 0.160129 0.160387 0.160302 0.160229 0.160306 
0.163705 0.162465 0.161675 0.161072 0.160833 0.16059 0.16064 0.160498 0.160661 
0.160555 0.160712 0.16058 0.160208 0.163723 0.163072 0.162139 0.161748 0.161285 
0.161198 0.160976 0.161068 0.16093 0.16114 0.161052 0.161161 0.161141 0.164386 
0.163377 0.162817 0.162201 0.162017 0.16172 0.161763 0.161581 0.161807 0.161626 
0.162045 0.161921 0.162383 0.16513 0.164503 0.163588 0.163331 0.162929 0.162989 
0.162759 0.163025 0.162824 0.1633 0.163256 0.163456 0.163823 0.166221 0.165272 
0.164936 0.164337 0.164404 0.164084 0.164371 0.164142 0.164616 0.16444 0.164911 
0.164852 0.165288 0.167465 0.166951 0.166074 0.166075 0.165641 0.165947 0.165695 
0.16615 0.166003 0.166399 0.166372 0.166413 0.166981 0.168897 0.168026 0.167919 
0.167343 0.167611 0.167298 0.167709 0.167531 0.167877 0.167768 0.167992 0.167924 
0.168796 0.170693 0.170203 0.169397 0.169536 0.16915 0.169504 0.169313 0.169605 
0.169517 0.169709 0.169654 0.169678 0.170858 0.172527 0.171644 0.171639 0.171152 
0.171402 0.171157 0.171419 0.171297 0.171483 0.171379 0.171599 0.171541 0.17324 
0.174737 0.17415 0.173458 0.173537 0.173229 0.17346 0.173323 0.173522 0.173437 
0.17368 0.173685 0.173721 0.175656 0.176883 0.175916 0.175789 0.175365 0.17551 
0.175333 0.175533 0.175456 0.175687 0.175648 0.175913 0.175918 0.178252 0.179103 
0.178345 0.177669 0.177649 0.17743 0.177559 0.177474 0.177707 0.177672 0.177993 
0.178083 0.178146 0.180748 0.18119 0.179887 0.17957 0.179049 0.179073 0.178862 
0.179094 0.178954 0.179366 0.17928 0.179773 0.17978 0.18304 0.1827 0.181368 
0.180267 0.179969 0.179444 0.17965 0.179422 0.179875 0.179718 0.180353 0.180425 
0.180652 0.159744 0.159758 0.160728 0.160848 0.160918 0.160663 0.160426 0.160037 
0.160062 0.159696 0.159864 0.159665 0.159544 0.160411 0.163509 0.160414 0.159858 
0.159401 0.159815 0.159807 0.160185 0.160161 0.160476 0.160385 0.160605 0.160517 
0.159201 0.163079 0.161912 0.16117 0.160833 0.160542 0.160645 0.160495 0.160793 
0.160691 0.160991 0.160918 0.160954 0.15971 0.163408 0.162313 0.161851 0.161243 
0.161152 0.160838 0.160982 0.160807 0.161113 0.160969 0.16134 0.161255 0.160836 
0.163891 0.163216 0.162352 0.16209 0.161662 0.161758 0.161514 0.161854 0.161659 
0.162186 0.162132 0.162363 0.162202 0.164828 0.163882 0.163514 0.162896 0.162947 
0.162592 0.162927 0.162667 0.163248 0.163035 0.163601 0.163527 0.163633 0.165913 
0.165417 0.164542 0.164508 0.164034 0.164385 0.164065 0.164664 0.164456 0.165021 
0.165019 0.16507 0.165222 0.167235 0.166378 0.166242 0.165627 0.165908 0.16553 
0.166053 0.16581 0.166343 0.166212 0.166533 0.166464 0.166894 0.168814 0.168375 
0.167547 0.167691 0.167238 0.167684 0.167412 0.167879 0.167744 0.168067 0.168035 
0.168042 0.168722 0.170466 0.169617 0.169626 0.169095 0.169401 0.169092 0.16947 