# vtk DataFile Version 5.1
vtk output
ASCII
DATASET STRUCTURED_GRID
DIMENSIONS 25 30 68
POINTS 51000 float
0.407217 0.005 0.55 0.407217 0.005 0.553 0.407217 0.005 0.55609 
0.407217 0.005 0.559363 0.407217 0.005 0.562918 0.407217 0.005 0.566862 
0.407217 0.005 0.571312 0.407217 0.005 0.576403 0.407217 0.005 0.582287 
0.407217 0.005 0.589143 0.407217 0.005 0.597175 0.407217 0.005 0.606626 
0.407217 0.005 0.617779 0.407217 0.005 0.630969 0.407217 0.005 0.646595 
0.407217 0.005 0.665124 0.407217 0.005 0.687115 0.407217 0.005 0.713228 
0.407217 0.005 0.744248 0.407217 0.005 0.781109 0.407217 0.005 0.824918 
0.407217 0.005 0.876993 0.407217 0.005 0.938899 0.407217 0.005 1.0125 
0.407217 0.005 1.1 0.407217 0.0049 0.55 0.407217 0.0049 0.553 
0.407217 0.0049 0.55609 0.407217 0.0049 0.559363 0.407217 0.0049 0.562918 
0.407217 0.0049 0.566862 0.407217 0.0049 0.571312 0.407217 0.0049 0.576403 
0.407217 0.0049 0.582287 0.407217 0.0049 0.589143 0.407217 0.0049 0.597175 
0.407217 0.0049 0.606626 0.407217 0.0049 0.617779 0.407217 0.0049 0.630969 
0.407217 0.0049 0.646595 0.407217 0.0049 0.665124 0.407217 0.0049 0.687115 
0.407217 0.0049 0.713228 0.407217 0.0049 0.744248 0.407217 0.0049 0.781109 
0.407217 0.0049 0.824918 0.407217 0.0049 0.876993 0.407217 0.0049 0.938899 
0.407217 0.0049 1.0125 0.407217 0.0049 1.1 0.407217 0.0047941 0.55 
0.407217 0.0047941 0.553 0.407217 0.0047941 0.55609 0.407217 0.0047941 0.559363 
0.407217 0.0047941 0.562918 0.407217 0.0047941 0.566862 0.407217 0.0047941 0.571312 
0.407217 0.0047941 0.576403 0.407217 0.0047941 0.582287 0.407217 0.0047941 0.589143 
0.407217 0.0047941 0.597175 0.407217 0.0047941 0.606626 0.407217 0.0047941 0.617779 
0.407217 0.0047941 0.630969 0.407217 0.0047941 0.646595 0.407217 0.0047941 0.665124 
0.407217 0.0047941 0.687115 0.407217 0.0047941 0.713228 0.407217 0.0047941 0.744248 
0.407217 0.0047941 0.781109 0.407217 0.0047941 0.824918 0.407217 0.0047941 0.876993 
0.407217 0.0047941 0.938899 0.407217 0.0047941 1.0125 0.407217 0.0047941 1.1 
0.407217 0.00468214 0.55 0.407217 0.00468214 0.553 0.407217 0.00468214 0.55609 
0.407217 0.00468214 0.559363 0.407217 0.00468214 0.562918 0.407217 0.00468214 0.566862 
0.407217 0.00468214 0.571312 0.407217 0.00468214 0.576403 0.407217 0.00468214 0.582287 
0.407217 0.00468214 0.589143 0.407217 0.00468214 0.597175 0.407217 0.00468214 0.606626 
0.407217 0.00468214 0.617779 0.407217 0.00468214 0.630969 0.407217 0.00468214 0.646595 
0.407217 0.00468214 0.665124 0.407217 0.00468214 0.687115 0.407217 0.00468214 0.713228 
0.407217 0.00468214 0.744248 0.407217 0.00468214 0.781109 0.407217 0.00468214 0.824918 
0.407217 0.00468214 0.876993 0.407217 0.00468214 0.938899 0.407217 0.00468214 1.0125 
0.407217 0.00468214 1.1 0.407217 0.00456397 0.55 0.407217 0.00456397 0.553 
0.407217 0.00456397 0.55609 0.407217 0.00456397 0.559363 0.407217 0.00456397 0.562918 
0.407217 0.00456397 0.566862 0.407217 0.00456397 0.571312 0.407217 0.00456397 0.576403 
0.407217 0.00456397 0.582287 0.407217 0.00456397 0.589143 0.407217 0.00456397 0.597175 
0.407217 0.00456397 0.606626 0.407217 0.00456397 0.617779 0.407217 0.00456397 0.630969 
0.407217 0.00456397 0.646595 0.407217 0.00456397 0.665124 0.407217 0.00456397 0.687115 
0.407217 0.00456397 0.713228 0.407217 0.00456397 0.744248 0.407217 0.00456397 0.781109 
0.407217 0.00456397 0.824918 0.407217 0.00456397 0.876993 0.407217 0.00456397 0.938899 
0.407217 0.00456397 1.0125 0.407217 0.00456397 1.1 0.407217 0.00443949 0.55 
0.407217 0.00443949 0.553 0.407217 0.00443949 0.55609 0.407217 0.00443949 0.559363 
0.407217 0.00443949 0.562918 0.407217 0.00443949 0.566862 0.407217 0.00443949 0.571312 
0.407217 0.00443949 0.576403 0.407217 0.00443949 0.582287 0.407217 0.00443949 0.589143 
0.407217 0.00443949 0.597175 0.407217 0.00443949 0.606626 0.407217 0.00443949 0.617779 
0.407217 0.00443949 0.630969 0.407217 0.00443949 0.646595 0.407217 0.00443949 0.665124 
0.407217 0.00443949 0.687115 0.407217 0.00443949 0.713228 0.407217 0.00443949 0.744248 
0.407217 0.00443949 0.781109 0.407217 0.00443949 0.824918 0.407217 0.00443949 0.876993 
0.407217 0.00443949 0.938899 0.407217 0.00443949 1.0125 0.407217 0.00443949 1.1 
0.407217 0.00430859 0.55 0.407217 0.00430859 0.553 0.407217 0.00430859 0.55609 
0.407217 0.00430859 0.559363 0.407217 0.00430859 0.562918 0.407217 0.00430859 0.566862 
0.407217 0.00430859 0.571312 0.407217 0.00430859 0.576403 0.407217 0.00430859 0.582287 
0.407217 0.00430859 0.589143 0.407217 0.00430859 0.597175 0.407217 0.00430859 0.606626 
0.407217 0.00430859 0.617779 0.407217 0.00430859 0.630969 0.407217 0.00430859 0.646595 
0.407217 0.00430859 0.665124 0.407217 0.00430859 0.687115 0.407217 0.00430859 0.713228 
0.407217 0.00430859 0.744248 0.407217 0.00430859 0.781109 0.407217 0.00430859 0.824918 
0.407217 0.00430859 0.876993 0.407217 0.00430859 0.938899 0.407217 0.00430859 1.0125 
0.407217 0.00430859 1.1 0.407217 0.00417124 0.55 0.407217 0.00417124 0.553 
0.407217 0.00417124 0.55609 0.407217 0.00417124 0.559363 0.407217 0.00417124 0.562918 
0.407217 0.00417124 0.566862 0.407217 0.00417124 0.571312 0.407217 0.00417124 0.576403 
0.407217 0.00417124 0.582287 0.407217 0.00417124 0.589143 0.407217 0.00417124 0.597175 
0.407217 0.00417124 0.606626 0.407217 0.00417124 0.617779 0.407217 0.00417124 0.630969 
0.407217 0.00417124 0.646595 0.407217 0.00417124 0.665124 0.407217 0.00417124 0.687115 
0.407217 0.00417124 0.713228 0.407217 0.00417124 0.744248 0.407217 0.00417124 0.781109 
0.407217 0.00417124 0.824918 0.407217 0.00417124 0.876993 0.407217 0.00417124 0.938899 
0.407217 0.00417124 1.0125 0.407217 0.00417124 1.1 0.407217 0.00402741 0.55 
0.407217 0.00402741 0.553 0.407217 0.00402741 0.55609 0.407217 0.00402741 0.559363 
0.407217 0.00402741 0.562918 0.407217 0.00402741 0.566862 0.407217 0.00402741 0.571312 
0.407217 0.00402741 0.576403 0.407217 0.00402741 0.582287 0.407217 0.00402741 0.589143 
0.407217 0.00402741 0.597175 0.407217 0.00402741 0.606626 0.407217 0.00402741 0.617779 
0.407217 0.00402741 0.630969 0.407217 0.00402741 0.646595 0.407217 0.00402741 0.665124 
0.407217 0.00402741 0.687115 0.407217 0.00402741 0.713228 0.407217 0.00402741 0.744248 
0.407217 0.00402741 0.781109 0.407217 0.00402741 0.824918 0.407217 0.00402741 0.876993 
0.407217 0.00402741 0.938899 0.407217 0.00402741 1.0125 0.407217 0.00402741 1.1 
0.407217 0.00387714 0.55 0.407217 0.00387714 0.553 0.407217 0.00387714 0.55609 
0.407217 0.00387714 0.559363 0.407217 0.00387714 0.562918 0.407217 0.00387714 0.566862 
0.407217 0.00387714 0.571312 0.407217 0.00387714 0.576403 0.407217 0.00387714 0.582287 
0.407217 0.00387714 0.589143 0.407217 0.00387714 0.597175 0.407217 0.00387714 0.606626 
0.407217 0.00387714 0.617779 0.407217 0.00387714 0.630969 0.407217 0.00387714 0.646595 
0.407217 0.00387714 0.665124 0.407217 0.00387714 0.687115 0.407217 0.00387714 0.713228 
0.407217 0.00387714 0.744248 0.407217 0.00387714 0.781109 0.407217 0.00387714 0.824918 
0.407217 0.00387714 0.876993 0.407217 0.00387714 0.938899 0.407217 0.00387714 1.0125 
0.407217 0.00387714 1.1 0.407217 0.0037205 0.55 0.407217 0.0037205 0.553 
0.407217 0.0037205 0.55609 0.407217 0.0037205 0.559363 0.407217 0.0037205 0.562918 
0.407217 0.0037205 0.566862 0.407217 0.0037205 0.571312 0.407217 0.0037205 0.576403 
0.407217 0.0037205 0.582287 0.407217 0.0037205 0.589143 0.407217 0.0037205 0.597175 
0.407217 0.0037205 0.606626 0.407217 0.0037205 0.617779 0.407217 0.0037205 0.630969 
0.407217 0.0037205 0.646595 0.407217 0.0037205 0.665124 0.407217 0.0037205 0.687115 
0.407217 0.0037205 0.713228 0.407217 0.0037205 0.744248 0.407217 0.0037205 0.781109 
0.407217 0.0037205 0.824918 0.407217 0.0037205 0.876993 0.407217 0.0037205 0.938899 
0.407217 0.0037205 1.0125 0.407217 0.0037205 1.1 0.407217 0.00355762 0.55 
0.407217 0.00355762 0.553 0.407217 0.00355762 0.55609 0.407217 0.00355762 0.559363 
0.407217 0.00355762 0.562918 0.407217 0.00355762 0.566862 0.407217 0.00355762 0.571312 
0.407217 0.00355762 0.576403 0.407217 0.00355762 0.582287 0.407217 0.00355762 0.589143 
0.407217 0.00355762 0.597175 0.407217 0.00355762 0.606626 0.407217 0.00355762 0.617779 
0.407217 0.00355762 0.630969 0.407217 0.00355762 0.646595 0.407217 0.00355762 0.665124 
0.407217 0.00355762 0.687115 0.407217 0.00355762 0.713228 0.407217 0.00355762 0.744248 
0.407217 0.00355762 0.781109 0.407217 0.00355762 0.824918 0.407217 0.00355762 0.876993 
0.407217 0.00355762 0.938899 0.407217 0.00355762 1.0125 0.407217 0.00355762 1.1 
0.407217 0.00338868 0.55 0.407217 0.00338868 0.553 0.407217 0.00338868 0.55609 
0.407217 0.00338868 0.559363 0.407217 0.00338868 0.562918 0.407217 0.00338868 0.566862 
0.407217 0.00338868 0.571312 0.407217 0.00338868 0.576403 0.407217 0.00338868 0.582287 
0.407217 0.00338868 0.589143 0.407217 0.00338868 0.597175 0.407217 0.00338868 0.606626 
0.407217 0.00338868 0.617779 0.407217 0.00338868 0.630969 0.407217 0.00338868 0.646595 
0.407217 0.00338868 0.665124 0.407217 0.00338868 0.687115 0.407217 0.00338868 0.713228 
0.407217 0.00338868 0.744248 0.407217 0.00338868 0.781109 0.407217 0.00338868 0.824918 
0.407217 0.00338868 0.876993 0.407217 0.00338868 0.938899 0.407217 0.00338868 1.0125 
0.407217 0.00338868 1.1 0.407217 0.0032139 0.55 0.407217 0.0032139 0.553 
0.407217 0.0032139 0.55609 0.407217 0.0032139 0.559363 0.407217 0.0032139 0.562918 
0.407217 0.0032139 0.566862 0.407217 0.0032139 0.571312 0.407217 0.0032139 0.576403 
0.407217 0.0032139 0.582287 0.407217 0.0032139 0.589143 0.407217 0.0032139 0.597175 
0.407217 0.0032139 0.606626 0.407217 0.0032139 0.617779 0.407217 0.0032139 0.630969 
0.407217 0.0032139 0.646595 0.407217 0.0032139 0.665124 0.407217 0.0032139 0.687115 
0.407217 0.0032139 0.713228 0.407217 0.0032139 0.744248 0.407217 0.0032139 0.781109 
0.407217 0.0032139 0.824918 0.407217 0.0032139 0.876993 0.407217 0.0032139 0.938899 
0.407217 0.0032139 1.0125 0.407217 0.0032139 1.1 0.407217 0.00303357 0.55 
0.407217 0.00303357 0.553 0.407217 0.00303357 0.55609 0.407217 0.00303357 0.559363 
[...]
POINT_DATA 51000
FIELD FieldData 5
pressure 1 51000 float
0.179342 0.179342 0.182007 0.182021 0.182374 0.182283 0.182139 0.181875 0.181552 
0.181167 0.180799 0.180518 0.180361 0.1803 0.180394 0.180309 0.179973 0.179672 
0.179157 0.178722 0.178595 0.178571 0.178572 0.178573 0.178573 0.179342 0.179342 
0.182007 0.182021 0.182374 0.182283 0.182139 0.181875 0.181552 0.181167 0.180799 
0.180518 0.180361 0.1803 0.180394 0.180309 0.179973 0.179672 0.179157 0.178722 
0.178595 0.178571 0.178572 0.178573 0.178573 0.179202 0.179202 0.181934 0.181971 
0.182329 0.182238 0.182105 0.181855 0.181553 0.181201 0.180841 0.180557 0.180346 
0.180268 0.180353 0.180269 0.179947 0.179649 0.179144 0.178718 0.178594 0.178571 
0.178572 0.178573 0.178573 0.179185 0.179185 0.181865 0.181906 0.182258 0.182185 
0.182052 0.181813 0.181517 0.181159 0.180809 0.180503 0.180322 0.180233 0.180321 
0.180241 0.179915 0.179626 0.179132 0.178715 0.178594 0.178571 0.178572 0.178573 
0.178573 0.179158 0.179158 0.181818 0.181817 0.182184 0.182106 0.181986 0.181749 
0.181457 0.181113 0.180751 0.180473 0.180273 0.180201 0.180281 0.180196 0.179884 
0.179599 0.179118 0.178711 0.178593 0.178571 0.178572 0.178573 0.178573 0.179163 
0.179163 0.181743 0.181735 0.182089 0.182027 0.181905 0.181678 0.181395 0.18105 
0.180711 0.180418 0.180244 0.180154 0.180236 0.180158 0.179847 0.179572 0.179103 
0.178707 0.178593 0.178571 0.178572 0.178573 0.178573 0.179143 0.179143 0.181676 
0.181636 0.182003 0.181934 0.181825 0.181602 0.181325 0.180997 0.18065 0.180384 
0.180191 0.180117 0.18019 0.18011 0.179813 0.179543 0.179088 0.178703 0.178592 
0.178571 0.178572 0.178573 0.178573 0.179158 0.179158 0.181583 0.181548 0.181902 
0.181847 0.181736 0.181524 0.181256 0.180929 0.180603 0.180325 0.180155 0.180066 
0.180142 0.180068 0.179774 0.179513 0.179071 0.178699 0.178592 0.178571 0.178572 
0.178573 0.178573 0.179155 0.179155 0.181492 0.181446 0.181809 0.181749 0.181649 
0.181441 0.18118 0.180868 0.180537 0.18028 0.180098 0.180021 0.180091 0.180019 
0.179737 0.179482 0.179054 0.178695 0.178591 0.178571 0.178572 0.178573 0.178573 
0.179194 0.179194 0.181371 0.181351 0.181704 0.181655 0.181555 0.181357 0.181104 
0.180796 0.180479 0.180217 0.180049 0.179965 0.18004 0.179971 0.179696 0.17945 
0.179036 0.17869 0.17859 0.178571 0.178572 0.178573 0.178573 0.179211 0.179211 
0.181258 0.181249 0.181603 0.181553 0.18146 0.181268 0.181023 0.180725 0.18041 
0.180158 0.179988 0.179912 0.179983 0.179922 0.179655 0.179416 0.179018 0.178685 
0.17859 0.178571 0.178572 0.178573 0.178573 0.179235 0.179235 0.181143 0.181147 
0.181496 0.18145 0.181361 0.181177 0.180939 0.18065 0.180339 0.180094 0.179928 
0.179851 0.179928 0.179866 0.179612 0.179381 0.178998 0.17868 0.178589 0.178571 
0.178572 0.178573 0.178573 0.179241 0.179241 0.181028 0.181044 0.181385 0.181344 
0.181259 0.181082 0.180854 0.180569 0.180269 0.180025 0.179865 0.179793 0.179863 
0.179813 0.179565 0.179344 0.178979 0.178675 0.178588 0.178571 0.178572 0.178573 
0.178573 0.179241 0.179241 0.180918 0.180934 0.181272 0.181233 0.181154 0.180985 
0.180762 0.180493 0.18019 0.179961 0.179801 0.179727 0.179804 0.17975 0.179517 
0.179307 0.178958 0.178669 0.178587 0.178572 0.178572 0.178573 0.178573 0.179231 
0.179231 0.180798 0.180826 0.181151 0.181119 0.181045 0.180883 0.180674 0.180407 
0.180122 0.179891 0.179737 0.179669 0.179733 0.179689 0.179468 0.179267 0.178937 
0.178664 0.178586 0.178572 0.178572 0.178573 0.178573 0.179207 0.179207 0.180683 
0.18071 0.181028 0.181 0.180931 0.180782 0.180578 0.18033 0.180044 0.179827 
0.179677 0.179599 0.17967 0.179623 0.179414 0.179228 0.178916 0.178658 0.178586 
0.178572 0.178572 0.178573 0.178573 0.179179 0.179179 0.180557 0.180595 0.1809 
0.180877 0.180816 0.180673 0.180487 0.180244 0.179973 0.179761 0.179607 0.179542 
0.179595 0.179555 0.179363 0.179185 0.178894 0.178653 0.178585 0.178572 0.178572 
0.178573 0.178573 0.179142 0.179142 0.180434 0.180478 0.180768 0.180753 0.180695 
0.180567 0.180387 0.180161 0.179898 0.179689 0.179549 0.179468 0.179528 0.179489 
0.179306 0.179144 0.178871 0.178647 0.178584 0.178572 0.178572 0.178573 0.178573 
0.179105 0.179105 0.180308 0.180359 0.180638 0.180623 0.180576 0.180453 0.180289 
0.180073 0.179815 0.179621 0.179471 0.179407 0.179456 0.179421 0.179254 0.1791 
0.178849 0.178641 0.178583 0.178573 0.178573 0.178573 0.178573 0.179072 0.179072 
0.180181 0.180248 0.180503 0.180498 0.180451 0.180341 0.180185 0.179976 0.179733 
0.179534 0.179403 0.17933 0.179388 0.179358 0.179199 0.179058 0.178825 0.178635 
0.178582 0.178573 0.178573 0.178573 0.178573 0.179038 0.179038 0.180065 0.180133 
0.180377 0.180368 0.18033 0.180225 0.180076 0.179879 0.179634 0.179452 0.179316 
0.179261 0.179318 0.179295 0.179147 0.179014 0.178801 0.178629 0.178581 0.178573 
0.178573 0.178573 0.178573 0.179019 0.179019 0.179946 0.180029 0.180247 0.180244 
0.180205 0.180106 0.179965 0.179769 0.179536 0.179352 0.179232 0.179183 0.17925 
0.179234 0.179094 0.17897 0.178777 0.178623 0.17858 0.178573 0.178573 0.178573 
0.178573 0.178992 0.178992 0.179845 0.179922 0.180123 0.180118 0.180081 0.179987 
0.179847 0.179657 0.179426 0.17925 0.179139 0.179104 0.179181 0.179175 0.179042 
0.178927 0.178753 0.178617 0.17858 0.178574 0.178573 0.178573 0.178573 0.178981 
0.178981 0.179744 0.179817 0.179998 0.179991 0.179957 0.179863 0.179726 0.179539 
0.17931 0.179144 0.179041 0.179024 0.179113 0.179113 0.178991 0.178883 0.178728 
0.178611 0.178579 0.178574 0.178573 0.178573 0.178573 0.178982 0.178982 0.179655 
0.179718 0.179872 0.17987 0.179831 0.17974 0.179602 0.179412 0.179195 0.179024 
0.178946 0.178938 0.179041 0.179058 0.178938 0.178841 0.178704 0.178605 0.178578 
0.178574 0.178573 0.178573 0.178573 0.178975 0.178975 0.179573 0.179607 0.179748 
0.179738 0.179704 0.179609 0.179471 0.17929 0.179066 0.17892 0.17884 0.178859 
0.178974 0.178994 0.178889 0.178797 0.178679 0.178599 0.178577 0.178574 0.178573 
0.178573 0.178573 0.178978 0.178978 0.179496 0.179513 0.179622 0.179622 0.179578 
0.179484 0.179343 0.179151 0.178948 0.178787 0.178742 0.178767 0.178899 0.178941 
0.178837 0.178756 0.178656 0.178593 0.178576 0.178574 0.178573 0.178573 0.178573 
0.178962 0.178962 0.179409 0.179388 0.179491 0.17948 0.179442 0.179344 0.179203 
0.179028 0.178819 0.178697 0.178643 0.178694 0.178832 0.178873 0.178785 0.178711 
0.178631 0.178587 0.178575 0.178574 0.178573 0.178573 0.178573 0.178957 0.178957 
0.179344 0.179305 0.179371 0.179376 0.179327 0.179225 0.179075 0.17888 0.178687 
0.178531 0.178519 0.178585 0.17876 0.178827 0.178738 0.178672 0.178608 0.178581 
0.178574 0.178574 0.178573 0.178573 0.178573 0.178876 0.178876 0.179187 0.179139 
0.179212 0.179197 0.179154 0.179066 0.178944 0.178802 0.178644 0.17855 0.178512 
0.178558 0.178665 0.178702 0.17865 0.178611 0.178582 0.178575 0.178573 0.178574 
0.178573 0.178573 0.178573 0.18095 0.18095 0.182978 0.18273 0.183019 0.182903 
0.182719 0.182396 0.181995 0.181519 0.181047 0.180675 0.180494 0.180484 0.180631 
0.180525 0.180113 0.179772 0.179214 0.178739 0.178597 0.178571 0.178572 0.178573 
0.178573 0.17266 0.17266 0.182253 0.182695 0.182999 0.182882 0.182694 0.182368 
0.18196 0.181468 0.180983 0.180589 0.180378 0.18036 0.180539 0.180481 0.180092 
0.17976 0.179212 0.17874 0.178597 0.178571 0.178572 0.178573 0.178573 0.171088 
0.171088 0.18183 0.182608 0.182928 0.182818 0.182639 0.182326 0.181934 0.181456 
0.180982 0.180596 0.180372 0.180339 0.180505 0.18045 0.180076 0.179748 0.179206 
0.178739 0.178597 0.178571 0.178572 0.178573 0.178573 0.169817 0.169817 0.181501 
0.182518 0.182855 0.182748 0.182579 0.182277 0.181898 0.181434 0.180972 0.180593 
0.180368 0.180322 0.180473 0.180417 0.180048 0.179728 0.179195 0.178736 0.178597 
0.178571 0.178572 0.178573 0.178573 0.168789 0.168789 0.18123 0.182424 0.182779 
0.182675 0.182514 0.182223 0.181856 0.181405 0.180953 0.180584 0.180356 0.1803 
0.180439 0.18038 0.180019 0.179705 0.179183 0.178733 0.178596 0.178571 0.178572 
0.178573 0.178573 0.167922 0.167922 0.181002 0.182321 0.182698 0.182595 0.182443 
0.182161 0.181807 0.181369 0.180928 0.180564 0.180339 0.180272 0.1804 0.180342 
0.179986 0.17968 0.17917 0.178729 0.178596 0.178571 0.178572 0.178573 0.178573 
0.16717 0.16717 0.180797 0.182213 0.18261 0.18251 0.182363 0.182093 0.18175 
0.181326 0.180893 0.180539 0.180312 0.180239 0.180358 0.180299 0.179953 0.179653 
0.179156 0.178726 0.178595 0.178571 0.178572 0.178573 0.178573 0.166459 0.166459 
0.180608 0.182097 0.182516 0.182417 0.182278 0.182015 0.181685 0.181273 0.180851 
0.180502 0.180279 0.180199 0.180311 0.180255 0.179916 0.179625 0.179141 0.178722 
0.178595 0.178571 0.178572 0.178573 0.178573 0.165774 0.165774 0.180413 0.181978 
0.182415 0.182318 0.182184 0.181932 0.18161 0.181212 0.180799 0.18046 0.180236 
0.180155 0.180261 0.180207 0.179879 0.179595 0.179124 0.178717 0.178594 0.178571 
0.178572 0.178573 0.178573 0.165067 0.165067 0.180221 0.181849 0.182309 0.182214 
0.182085 0.18184 0.18153 0.181142 0.180741 0.180406 0.18019 0.180104 0.180206 
0.180158 0.179838 0.179564 0.179107 0.178713 0.178593 0.178571 0.178572 0.178573 
0.178573 0.164349 0.164349 0.180018 0.181716 0.182197 0.182104 0.18198 0.181743 
0.181441 0.181066 0.180671 0.180349 0.180134 0.180051 0.18015 0.180104 0.179798 
0.17953 0.179089 0.178708 0.178593 0.178571 0.178572 0.178573 0.178573 0.163591 
0.163591 0.179822 0.181572 0.182081 0.18199 0.181869 0.18164 0.181349 0.180982 
0.180601 0.180281 0.180078 0.179992 0.18009 0.180051 0.179752 0.179496 0.17907 
0.178703 0.178592 0.178572 0.178572 0.178573 0.178573 0.162817 0.162817 0.179608 
0.181424 0.18196 0.18187 0.181754 0.181533 0.181249 0.180896 0.18052 0.180217 
0.180013 0.179934 0.180029 0.179991 0.179707 0.179458 0.17905 0.178698 0.178591 
0.178572 0.178572 0.178573 0.178573 0.162007 0.162007 0.179398 0.181269 0.18183 
0.181747 0.181632 0.18142 0.181147 0.180802 0.180443 0.180142 0.179955 0.179872 
0.179964 0.179934 0.179656 0.179421 0.17903 0.178693 0.17859 0.178572 0.178572 
0.178573 0.178573 0.16121 0.16121 0.179162 0.18111 0.181696 0.181615 0.181506 
0.181302 0.181038 0.18071 0.180356 0.180076 0.179886 0.179812 0.179899 0.179867 
0.179608 0.179379 0.179008 0.178687 0.17859 0.178572 0.178572 0.178573 0.178573 
0.160421 0.160421 0.178929 0.180949 0.181549 0.181482 0.181373 0.181179 0.180929 
0.180608 0.180277 0.179996 0.179827 0.179746 0.17983 0.179806 0.179552 0.179338 
0.178986 0.178681 0.178589 0.178573 0.178572 0.178573 0.178573 0.159681 0.159681 
0.178672 0.180781 0.181403 0.181337 0.181236 0.181051 0.180811 0.180511 0.180183 
0.179929 0.179752 0.179683 0.179762 0.179735 0.1795 0.179294 0.178962 0.178675 
0.178588 0.178573 0.178572 0.178573 0.178573 0.159017 0.159017 0.178382 0.180613 
0.181243 0.181192 0.181091 0.180917 0.180693 0.180399 0.1801 0.179841 0.179686 
0.17961 0.179688 0.179672 0.179442 0.17925 0.178938 0.178669 0.178587 0.178573 
0.178572 0.178573 0.178573 0.158435 0.158435 0.178059 0.180434 0.181087 0.181035 
0.180943 0.180779 0.180563 0.180293 0.179994 0.179765 0.1796 0.179538 0.179617 
0.179598 0.179388 0.179204 0.178912 0.178662 0.178586 0.178573 0.178572 0.178573 
0.178573 0.157938 0.157938 0.177726 0.180265 0.180917 0.18088 0.180788 0.180633 
0.180434 0.180167 0.1799 0.17966 0.179518 0.179455 0.179537 0.179533 0.179329 
0.179157 0.178886 0.178655 0.178585 0.178573 0.178572 0.178573 0.178573 0.157534 
0.157534 0.177416 0.180086 0.180751 0.180717 0.180631 0.180485 0.180289 0.180046 
0.179777 0.179565 0.179416 0.179369 0.17946 0.179458 0.179272 0.17911 0.178858 
0.178647 0.178584 0.178573 0.178572 0.178573 0.178573 0.157314 0.157314 0.177122 
0.179924 0.180573 0.180555 0.180471 0.180329 0.180146 0.179905 0.179662 0.179443 
0.179316 0.179275 0.179375 0.17939 0.179212 0.179061 0.17883 0.17864 0.178583 
0.178572 0.178573 0.178573 0.178573 0.157302 0.157302 0.176882 0.179767 0.1804 
0.180391 0.18031 0.180173 0.179991 0.179768 0.179524 0.179326 0.179199 0.179178 
0.17929 0.179313 0.179153 0.179011 0.178801 0.178632 0.178582 0.178572 0.178573 
0.178573 0.178573 0.157468 0.157468 0.176732 0.179622 0.180226 0.180228 0.180148 
0.180012 0.179837 0.179616 0.179389 0.179193 0.179087 0.179075 0.179201 0.179241 
0.17909 0.178961 0.178771 0.178624 0.178581 0.178571 0.178573 0.178573 0.178573 
0.157995 0.157995 0.176703 0.179492 0.180056 0.180067 0.179987 0.179854 0.179678 
0.179468 0.179241 0.179063 0.178962 0.178972 0.179112 0.179162 0.179029 0.17891 
0.178741 0.178616 0.178579 0.17857 0.178573 0.178573 0.178573 0.15909 0.15909 
0.1768 0.179369 0.179886 0.179905 0.179827 0.179695 0.179525 0.179313 0.179102 
0.178929 0.178849 0.178869 0.179022 0.179086 0.178964 0.178858 0.178711 0.178608 
0.178578 0.178569 0.178573 0.178573 0.178573 0.161091 0.161091 0.177017 0.179273 
0.179724 0.179749 0.179674 0.179544 0.179371 0.179166 0.178952 0.178794 0.178721 
0.178762 0.17893 0.179007 0.178902 0.178806 0.178681 0.1786 0.178577 0.178568 
0.178573 0.178573 0.178573 0.163957 0.163957 0.177349 0.179198 0.179564 0.17959 
0.179519 0.179393 0.179227 0.179022 0.178828 0.178679 0.178623 0.178672 0.178841 
0.178927 0.178834 0.178752 0.17865 0.178592 0.178576 0.178567 0.178573 0.178573 
0.178573 0.167375 0.167375 0.177777 0.179149 0.179428 0.179449 0.179382 0.179259 
0.17909 0.178887 0.178665 0.178521 0.178476 0.178555 0.178753 0.178851 0.178773 
0.178702 0.178621 0.178584 0.178575 0.178565 0.178573 0.178573 0.178573 0.171083 
0.171083 0.178228 0.179171 0.179342 0.179342 0.17927 0.179159 0.17901 0.178826 
0.178661 0.178533 0.178486 0.178519 0.178653 0.178722 0.17867 0.178627 0.178586 
0.178575 0.178573 0.178565 0.178573 0.178573 0.178573 0.181261 0.181261 0.183509 
0.183223 0.183586 0.183458 0.183274 0.18296 0.182568 0.18211 0.181627 0.181239 
0.180999 0.180922 0.181031 0.180896 0.180454 0.180075 0.179396 0.178792 0.178605 
0.17857 0.178571 0.178573 0.178573 0.167382 0.167382 0.181963 0.183158 0.183577 
0.183442 0.183246 0.182917 0.1825 0.182015 0.181507 0.181094 0.180831 0.180767 
0.180929 0.180845 0.180426 0.180057 0.17939 0.178793 0.178605 0.178571 0.178571 
0.178573 0.178573 0.163832 0.163832 0.181031 0.183037 0.183497 0.183365 0.183177 
0.182854 0.182447 0.181968 0.181464 0.181057 0.180793 0.180729 0.180884 0.180804 
0.180395 0.180034 0.179379 0.17879 0.178605 0.178571 0.178571 0.178573 0.178573 
0.160881 0.160881 0.180173 0.182906 0.183408 0.183284 0.1831 0.182788 0.182389 
0.181918 0.181425 0.181024 0.180769 0.180698 0.180845 0.180763 0.180359 0.180005 
0.179363 0.178786 0.178604 0.178571 0.178572 0.178573 0.178573 0.158412 0.158412 
0.179389 0.182753 0.183322 0.183198 0.183025 0.182719 0.182332 0.181872 0.181386 
0.181 0.180743 0.18067 0.180804 0.180721 0.180322 0.179974 0.179347 0.178782 
0.178603 0.178571 0.178572 0.178573 0.178573 0.156381 0.156381 0.178676 0.182593 
0.183228 0.183115 0.182944 0.182652 0.182276 0.181826 0.181354 0.180972 0.180724 
0.180638 0.180761 0.180676 0.180282 0.179941 0.17933 0.178777 0.178603 0.178571 
0.178572 0.178573 0.178573 0.154678 0.154678 0.178074 0.182408 0.183134 0.183022 
0.182863 0.182579 0.182218 0.181782 0.181317 0.180949 0.180696 0.180605 0.180713 
0.180628 0.18024 0.179907 0.179311 0.178773 0.178602 0.178571 0.178572 0.178573 
0.178573 0.153244 0.153244 0.177553 0.182225 0.183027 0.18293 0.182773 0.182503 
0.182154 0.181732 0.18128 0.180917 0.180668 0.180564 0.180662 0.180575 0.180196 
0.179871 0.179291 0.178768 0.178601 0.178571 0.178572 0.178573 0.178573 0.151986 
0.151986 0.177088 0.182022 0.182918 0.182827 0.18268 0.182418 0.182084 0.181676 
0.181233 0.180879 0.180629 0.180519 0.180605 0.180521 0.180149 0.179833 0.179271 
0.178762 0.1786 0.178571 0.178572 0.178573 0.178573 0.150843 0.150843 0.176641 
0.181825 0.182795 0.182721 0.182577 0.182328 0.182005 0.181611 0.181178 0.180831 
0.180582 0.180465 0.180545 0.180462 0.180101 0.179793 0.179248 0.178756 0.1786 
0.178571 0.178572 0.178573 0.178573 0.149757 0.149757 0.176189 0.181614 0.182667 
0.182607 0.182468 0.182228 0.181918 0.181535 0.181113 0.180771 0.180526 0.180406 
0.180479 0.180402 0.180048 0.179751 0.179225 0.17875 0.178599 0.178572 0.178572 
0.178573 0.178573 0.148686 0.148686 0.175724 0.181406 0.182528 0.182486 0.182352 
0.182121 0.181821 0.181452 0.181036 0.180705 0.18046 0.180341 0.180412 0.180336 
0.179996 0.179707 0.179201 0.178744 0.178598 0.178572 0.178572 0.178573 0.178573 
0.147778 0.147778 0.175087 0.181185 0.18238 0.182361 0.182228 0.182006 0.181717 
0.181357 0.180956 0.180625 0.180393 0.180271 0.180339 0.180272 0.179938 0.179661 
0.179176 0.178737 0.178597 0.178572 0.178572 0.178573 0.178573 0.146992 0.146992 
0.1743 0.180957 0.182226 0.182226 0.1821 0.181884 0.181604 0.181259 0.180861 
0.180549 0.180314 0.1802 0.180267 0.180199 0.179882 0.179613 0.179149 0.178731 
0.178596 0.178572 0.178572 0.178573 0.178573 0.14628 0.14628 0.173406 0.18071 
0.18206 0.182089 0.181962 0.181755 0.181487 0.181147 0.180769 0.180455 0.180239 
0.180123 0.180187 0.180132 0.179819 0.179564 0.179122 0.178723 0.178595 0.178572 
0.178572 0.178573 0.178573 0.145649 0.145649 0.172401 0.180444 0.181891 0.181938 
0.18182 0.181619 0.181358 0.181037 0.180661 0.18037 0.18015 0.180045 0.180112 
0.180054 0.17976 0.179512 0.179093 0.178716 0.178594 0.178573 0.178572 0.178573 
0.178573 0.145098 0.145098 0.171321 0.180159 0.181702 0.181786 0.181667 0.181475 
0.181227 0.180909 0.180559 0.180263 0.180064 0.17996 0.180024 0.179984 0.179694 
0.179459 0.179064 0.178708 0.178593 0.178573 0.178572 0.178573 0.178573 0.14466 
0.14466 0.170188 0.179849 0.181509 0.181619 0.18151 0.181324 0.18108 0.180784 
0.180433 0.180165 0.179959 0.179868 0.179943 0.179901 0.179631 0.179405 0.179032 
0.178699 0.178591 0.178572 0.178572 0.178573 0.178573 0.144417 0.144417 0.169039 
0.179535 0.181288 0.181453 0.181343 0.181162 0.180932 0.180634 0.180316 0.180036 
0.179855 0.179769 0.179844 0.179827 0.179563 0.179349 0.179 0.178691 0.17859 
0.178572 0.178572 0.178573 0.178573 0.14438 0.14438 0.167993 0.179199 0.18107 
0.181274 0.181172 0.180995 0.180763 0.18049 0.180166 0.179918 0.179731 0.17966 
0.179753 0.179737 0.179497 0.179293 0.178966 0.178682 0.178589 0.178571 0.178572 
0.178573 0.178573 0.144805 0.144805 0.167028 0.178891 0.180838 0.181098 0.180995 
0.180817 0.180598 0.180318 0.180029 0.179769 0.179607 0.179547 0.179643 0.179656 
0.179425 0.179234 0.178932 0.178672 0.178588 0.17857 0.178572 0.178573 0.178573 
0.145627 0.145627 0.166292 0.178601 0.180613 0.180914 0.180815 0.180638 0.180416 
0.180154 0.179864 0.179632 0.17947 0.179425 0.17954 0.179561 0.179354 0.179175 
0.178896 0.178662 0.178586 0.178569 0.178572 0.178573 0.178573 0.147283 0.147283 
0.165989 0.178349 0.180391 0.180732 0.180631 0.180453 0.180235 0.179972 0.179705 
0.179473 0.179336 0.179302 0.179427 0.179471 0.179277 0.179114 0.178861 0.178652 
0.178585 0.178567 0.178572 0.178573 0.178573 0.150353 0.150353 0.166156 0.17812 
0.180176 0.180545 0.180447 0.180269 0.18005 0.179796 0.179532 0.179325 0.179195 
0.179182 0.17932 0.179373 0.179202 0.179051 0.178824 0.178642 0.178583 0.178566 
0.178572 0.178573 0.178573 0.154504 0.154504 0.16673 0.177937 0.179968 0.180358 
0.180261 0.180087 0.179872 0.179616 0.179373 0.179164 0.179064 0.179058 0.179208 
0.17928 0.179121 0.178988 0.178787 0.178631 0.178582 0.178565 0.178573 0.178573 
0.178573 0.15903 0.15903 0.167779 0.17785 0.179779 0.180163 0.180078 0.179907 
0.179695 0.179453 0.179208 0.179029 0.178931 0.178947 0.179102 0.179177 0.179043 
0.178922 0.178749 0.178621 0.17858 0.178564 0.178573 0.178573 0.178573 0.163374 
0.163374 0.169172 0.177864 0.179607 0.17997 0.179891 0.179729 0.179527 0.179285 
0.17906 0.178874 0.178806 0.178826 0.178993 0.179083 0.178961 0.178858 0.178712 
0.17861 0.178579 0.178563 0.178573 0.178573 0.178573 0.167316 0.167316 0.170899 
0.177982 0.179477 0.179769 0.179707 0.179554 0.179363 0.179138 0.178913 0.178765 
0.178695 0.178731 0.17889 0.178977 0.178879 0.17879 0.178673 0.178599 0.178577 
0.178563 0.178573 0.178573 0.178573 0.170666 0.170666 0.172844 0.178194 0.179337 