# vtk DataFile Version 5.1
vtk output
ASCII
DATASET STRUCTURED_GRID
DIMENSIONS 50 20 55
POINTS 55000 float
1.46131 0.915359 0.5 1.45877 0.913773 0.5 1.45598 0.912038 0.5 
1.45294 0.910141 0.5 1.44961 0.908069 0.5 1.44598 0.905807 0.5 
1.44202 0.903338 0.5 1.4377 0.900648 0.5 1.433 0.897718 0.5 
1.42788 0.894529 0.5 1.42231 0.891064 0.5 1.41627 0.887301 0.5 
1.40972 0.883221 0.5 1.40263 0.878802 0.5 1.39496 0.874024 0.5 
1.38668 0.868865 0.5 1.37775 0.863304 0.5 1.36815 0.857321 0.5 
1.35784 0.850897 0.5 1.34679 0.844012 0.5 1.33497 0.836652 0.5 
1.32237 0.828801 0.5 1.30896 0.820449 0.5 1.29474 0.811587 0.5 
1.27969 0.802213 0.5 1.26382 0.792325 0.5 1.24713 0.781931 0.5 
1.22965 0.771041 0.5 1.2114 0.759671 0.5 1.19242 0.747845 0.5 
1.17275 0.735591 0.5 1.15245 0.722945 0.5 1.13159 0.709949 0.5 
1.11024 0.696648 0.5 1.08848 0.683094 0.5 1.06641 0.669344 0.5 
1.04412 0.655457 0.5 1.02171 0.641495 0.5 0.999275 0.627522 0.5 
0.976929 0.613601 0.5 0.954767 0.599794 0.5 0.932885 0.586163 0.5 
0.911378 0.572764 0.5 0.89033 0.559652 0.5 0.869819 0.546874 0.5 
0.849915 0.534474 0.5 0.830677 0.52249 0.5 0.812157 0.510952 0.5 
0.794394 0.499886 0.5 0.777419 0.489311 0.5 1.45989 0.921187 0.5 
1.45733 0.919599 0.5 1.45454 0.917862 0.5 1.4515 0.915964 0.5 
1.44816 0.91389 0.5 1.44453 0.911625 0.5 1.44056 0.909155 0.5 
1.43623 0.906463 0.5 1.43152 0.903531 0.5 1.4264 0.90034 0.5 
1.42083 0.896873 0.5 1.41478 0.893108 0.5 1.40823 0.889026 0.5 
1.40113 0.884605 0.5 1.39345 0.879825 0.5 1.38516 0.874665 0.5 
1.37623 0.869102 0.5 1.36662 0.863118 0.5 1.3563 0.856692 0.5 
1.34525 0.849806 0.5 1.33343 0.842444 0.5 1.32082 0.834592 0.5 
1.30741 0.826238 0.5 1.29318 0.817375 0.5 1.27812 0.808 0.5 
1.26225 0.798111 0.5 1.24556 0.787716 0.5 1.22807 0.776824 0.5 
1.20981 0.765452 0.5 1.19082 0.753625 0.5 1.17114 0.741369 0.5 
1.15083 0.728721 0.5 1.12996 0.715721 0.5 1.1086 0.702417 0.5 
1.08683 0.68886 0.5 1.06474 0.675106 0.5 1.04244 0.661215 0.5 
1.02001 0.647248 0.5 0.997561 0.633269 0.5 0.975195 0.619342 0.5 
0.953013 0.60553 0.5 0.931111 0.591892 0.5 0.909582 0.578487 0.5 
0.888512 0.565368 0.5 0.867979 0.552583 0.5 0.848053 0.540176 0.5 
0.828794 0.528185 0.5 0.810252 0.516641 0.5 0.792468 0.505569 0.5 
0.775473 0.494987 0.5 1.45849 0.92691 0.5 1.45593 0.925321 0.5 
1.45313 0.923583 0.5 1.45008 0.921684 0.5 1.44674 0.919609 0.5 
1.4431 0.917343 0.5 1.43912 0.914872 0.5 1.43479 0.912179 0.5 
1.43008 0.909246 0.5 1.42494 0.906055 0.5 1.41937 0.902587 0.5 
1.41331 0.898822 0.5 1.40675 0.89474 0.5 1.39965 0.89032 0.5 
1.39196 0.88554 0.5 1.38367 0.88038 0.5 1.37473 0.874818 0.5 
1.36511 0.868835 0.5 1.35479 0.86241 0.5 1.34372 0.855526 0.5 
1.3319 0.848167 0.5 1.31928 0.840317 0.5 1.30587 0.831966 0.5 
1.29163 0.823107 0.5 1.27657 0.813734 0.5 1.26068 0.803849 0.5 
1.24398 0.793457 0.5 1.22649 0.782569 0.5 1.20822 0.771202 0.5 
1.18922 0.759378 0.5 1.16954 0.747126 0.5 1.14922 0.734482 0.5 
1.12833 0.721486 0.5 1.10696 0.708185 0.5 1.08517 0.69463 0.5 
1.06307 0.680879 0.5 1.04075 0.66699 0.5 1.0183 0.653024 0.5 
0.995832 0.639047 0.5 0.973446 0.625121 0.5 0.951242 0.611308 0.5 
0.929317 0.59767 0.5 0.907765 0.584265 0.5 0.886671 0.571145 0.5 
0.866115 0.558359 0.5 0.846165 0.545951 0.5 0.826883 0.533959 0.5 
0.808318 0.522413 0.5 0.790512 0.511339 0.5 0.773495 0.500756 0.5 
1.45711 0.932514 0.5 1.45455 0.930925 0.5 1.45175 0.929187 0.5 
1.44869 0.927288 0.5 1.44534 0.925213 0.5 1.44169 0.922949 0.5 
1.43771 0.920479 0.5 1.43338 0.917787 0.5 1.42865 0.914855 0.5 
1.42351 0.911666 0.5 1.41793 0.9082 0.5 1.41187 0.904438 0.5 
1.4053 0.900358 0.5 1.39819 0.895941 0.5 1.39049 0.891165 0.5 
1.38219 0.88601 0.5 1.37325 0.880453 0.5 1.36362 0.874475 0.5 
1.35329 0.868057 0.5 1.34222 0.861179 0.5 1.33038 0.853827 0.5 
1.31776 0.845986 0.5 1.30433 0.837644 0.5 1.29008 0.828794 0.5 
1.27502 0.819431 0.5 1.25912 0.809557 0.5 1.24241 0.799177 0.5 
1.22491 0.7883 0.5 1.20663 0.776945 0.5 1.18762 0.765134 0.5 
1.16792 0.752895 0.5 1.14759 0.740264 0.5 1.12669 0.72728 0.5 
1.10529 0.713992 0.5 1.08349 0.70045 0.5 1.06137 0.686711 0.5 
1.03903 0.672834 0.5 1.01656 0.658881 0.5 0.994069 0.644915 0.5 
0.971659 0.630999 0.5 0.94943 0.617197 0.5 0.92748 0.603569 0.5 
0.905902 0.590172 0.5 0.884782 0.577061 0.5 0.864199 0.564283 0.5 
0.844223 0.551883 0.5 0.824915 0.539898 0.5 0.806325 0.528359 0.5 
0.788494 0.517291 0.5 0.771453 0.506715 0.5 1.45577 0.937986 0.5 
1.45321 0.936399 0.5 1.4504 0.934663 0.5 1.44733 0.932766 0.5 
1.44398 0.930694 0.5 1.44032 0.928432 0.5 1.43633 0.925966 0.5 
1.43199 0.923277 0.5 1.42726 0.92035 0.5 1.42211 0.917166 0.5 
1.41652 0.913705 0.5 1.41045 0.909949 0.5 1.40387 0.905876 0.5 
1.39675 0.901467 0.5 1.38905 0.896699 0.5 1.38074 0.891553 0.5 
1.37178 0.886007 0.5 1.36214 0.88004 0.5 1.3518 0.873634 0.5 
1.34072 0.866771 0.5 1.32887 0.859433 0.5 1.31624 0.851608 0.5 
1.3028 0.843283 0.5 1.28854 0.834451 0.5 1.27346 0.825108 0.5 
1.25756 0.815255 0.5 1.24083 0.804896 0.5 1.22332 0.794042 0.5 
1.20502 0.782711 0.5 1.186 0.770924 0.5 1.16628 0.75871 0.5 
1.14593 0.746103 0.5 1.12501 0.733146 0.5 1.1036 0.719884 0.5 
1.08177 0.706368 0.5 1.05963 0.692655 0.5 1.03726 0.678804 0.5 
1.01477 0.664876 0.5 0.99225 0.650934 0.5 0.969813 0.637043 0.5 
0.947555 0.623265 0.5 0.925575 0.60966 0.5 0.903967 0.596286 0.5 
0.882817 0.583196 0.5 0.862204 0.570439 0.5 0.842198 0.558058 0.5 
0.822859 0.546092 0.5 0.80424 0.534571 0.5 0.786381 0.52352 0.5 
0.769312 0.51296 0.5 1.45447 0.943317 0.5 1.45189 0.941733 0.5 
1.44908 0.940001 0.5 1.446 0.938108 0.5 1.44265 0.936041 0.5 
1.43898 0.933785 0.5 1.43499 0.931325 0.5 1.43063 0.928643 0.5 
1.42589 0.925724 0.5 1.42074 0.922548 0.5 1.41514 0.919097 0.5 
1.40906 0.915352 0.5 1.40247 0.911291 0.5 1.39533 0.906895 0.5 
1.38762 0.902142 0.5 1.3793 0.897012 0.5 1.37033 0.891483 0.5 
1.36068 0.885535 0.5 1.35032 0.87915 0.5 1.33923 0.872309 0.5 
1.32737 0.864995 0.5 1.31472 0.857195 0.5 1.30127 0.848899 0.5 
1.28699 0.840096 0.5 1.2719 0.830784 0.5 1.25598 0.820964 0.5 
1.23924 0.81064 0.5 1.2217 0.799822 0.5 1.20339 0.788529 0.5 
1.18434 0.776781 0.5 1.1646 0.764607 0.5 1.14423 0.752042 0.5 
1.12328 0.739127 0.5 1.10185 0.725907 0.5 1.08 0.712435 0.5 
1.05782 0.698765 0.5 1.03543 0.684957 0.5 1.0129 0.671072 0.5 
0.990353 0.657173 0.5 0.967882 0.643323 0.5 0.94559 0.629586 0.5 
0.923576 0.616021 0.5 0.901933 0.602686 0.5 0.880747 0.589634 0.5 
0.860099 0.576913 0.5 0.840057 0.564568 0.5 0.820684 0.552635 0.5 
0.802031 0.541146 0.5 0.784138 0.530127 0.5 0.767037 0.519595 0.5 
1.4532 0.948495 0.5 1.45062 0.946917 0.5 1.4478 0.945192 0.5 
1.44471 0.943306 0.5 1.44135 0.941247 0.5 1.43767 0.939 0.5 
1.43367 0.93655 0.5 1.42931 0.93388 0.5 1.42456 0.930973 0.5 
1.41939 0.927811 0.5 1.41378 0.924375 0.5 1.40768 0.920646 0.5 
1.40108 0.916603 0.5 1.39393 0.912227 0.5 1.38621 0.907496 0.5 
1.37787 0.902389 0.5 1.36889 0.896886 0.5 1.35923 0.890967 0.5 
1.34885 0.884612 0.5 1.33774 0.877803 0.5 1.32586 0.870525 0.5 
1.3132 0.862763 0.5 1.29973 0.854507 0.5 1.28543 0.845748 0.5 
1.27031 0.836481 0.5 1.25437 0.826709 0.5 1.23761 0.816435 0.5 
1.22005 0.805671 0.5 1.20171 0.794433 0.5 1.18264 0.782742 0.5 
1.16287 0.770627 0.5 1.14247 0.758123 0.5 1.1215 0.74527 0.5 
1.10003 0.732114 0.5 1.07814 0.718705 0.5 1.05594 0.7051 0.5 
1.0335 0.691356 0.5 1.01094 0.677535 0.5 0.988353 0.6637 0.5 
0.965843 0.649914 0.5 0.94351 0.636239 0.5 0.921455 0.622735 0.5 
0.89977 0.609459 0.5 0.878543 0.596465 0.5 0.857852 0.5838 0.5 
0.837769 0.571509 0.5 0.818356 0.559628 0.5 0.799662 0.548189 0.5 
0.78173 0.537216 0.5 0.764592 0.52673 0.5 1.45197 0.953512 0.5 
1.44938 0.951943 0.5 1.44655 0.950228 0.5 1.44346 0.948353 0.5 
1.44009 0.946307 0.5 1.4364 0.944073 0.5 1.43239 0.941637 0.5 
1.42801 0.938983 0.5 1.42325 0.936094 0.5 1.41807 0.932951 0.5 
1.41244 0.929537 0.5 1.40634 0.925831 0.5 1.39972 0.921814 0.5 
1.39256 0.917466 0.5 1.38481 0.912765 0.5 1.37646 0.907691 0.5 
1.36746 0.902224 0.5 1.35778 0.896344 0.5 1.34738 0.890031 0.5 
1.33625 0.883268 0.5 1.32435 0.876038 0.5 1.31166 0.868329 0.5 
1.29817 0.860128 0.5 1.28385 0.851428 0.5 1.26871 0.842225 0.5 
1.25273 0.832518 0.5 1.23594 0.822315 0.5 1.21835 0.811623 0.5 
1.19999 0.800461 0.5 1.18088 0.788849 0.5 1.16108 0.776816 0.5 
1.14064 0.764396 0.5 1.11963 0.751629 0.5 1.09812 0.73856 0.5 
1.0762 0.72524 0.5 1.05395 0.711724 0.5 1.03147 0.69807 0.5 
1.00886 0.684339 0.5 0.986225 0.670594 0.5 0.963667 0.656896 0.5 
0.941286 0.643309 0.5 0.919181 0.62989 0.5 0.897447 0.616698 0.5 
0.87617 0.603786 0.5 0.85543 0.5912 0.5 0.835299 0.578985 0.5 
0.815837 0.567178 0.5 0.797096 0.555809 0.5 0.779118 0.544904 0.5 
0.761934 0.534482 0.5 1.45078 0.958363 0.5 1.44819 0.956806 0.5 
1.44535 0.955104 0.5 1.44225 0.953245 0.5 1.43886 0.951214 0.5 
1.43516 0.948998 0.5 1.43113 0.946582 0.5 1.42675 0.94395 0.5 
1.42197 0.941085 0.5 1.41678 0.937969 0.5 1.41113 0.934583 0.5 
1.40501 0.930909 0.5 1.39838 0.926926 0.5 1.3912 0.922615 0.5 
1.38343 0.917955 0.5 1.37506 0.912926 0.5 1.36603 0.907507 0.5 
1.35633 0.901678 0.5 1.34591 0.895421 0.5 1.33475 0.888718 0.5 
1.32283 0.881553 0.5 1.31011 0.873912 0.5 1.29658 0.865785 0.5 
1.28224 0.857163 0.5 1.26706 0.848043 0.5 1.25105 0.838424 0.5 
1.23423 0.828312 0.5 1.2166 0.817717 0.5 1.19819 0.806655 0.5 
1.17904 0.795147 0.5 1.1592 0.783222 0.5 1.13872 0.770913 0.5 
1.11766 0.75826 0.5 1.0961 0.745307 0.5 1.07413 0.732105 0.5 
1.05183 0.718708 0.5 1.02929 0.705174 0.5 1.00663 0.691564 0.5 
0.98394 0.677938 0.5 0.961324 0.664359 0.5 0.938885 0.650888 0.5 
0.916723 0.637585 0.5 0.89493 0.624505 0.5 0.873594 0.611702 0.5 
0.852796 0.599223 0.5 0.832606 0.587111 0.5 0.813087 0.575403 0.5 
0.794291 0.564129 0.5 0.776258 0.553315 0.5 0.759022 0.542979 0.5 
1.44964 0.96304 0.5 1.44703 0.9615 0.5 1.44418 0.959816 0.5 
1.44107 0.957976 0.5 1.43767 0.955967 0.5 1.43396 0.953775 0.5 
1.42992 0.951385 0.5 1.42551 0.948782 0.5 1.42072 0.945948 0.5 
1.41551 0.942866 0.5 1.40985 0.939517 0.5 1.40371 0.935884 0.5 
[...]
POINT_DATA 55000
FIELD FieldData 5
pressure 1 55000 float
0.207067 0.207067 0.209081 0.211253 0.213375 0.21532 0.217608 0.220653 0.223701 
0.227005 0.230672 0.234848 0.239507 0.244957 0.251217 0.258199 0.265719 0.273473 
0.281137 0.289134 0.297751 0.306128 0.312412 0.31672 0.322608 0.329407 0.334901 
0.338103 0.34116 0.344118 0.345947 0.347461 0.34767 0.346078 0.34334 0.340532 
0.339006 0.338422 0.338212 0.337877 0.337515 0.337382 0.337184 0.33668 0.336002 
0.335446 0.335052 0.3348 0.334545 0.334247 0.259825 0.332373 0.332529 0.333222 
0.333869 0.334589 0.335329 0.336128 0.336899 0.337792 0.338711 0.339758 0.340815 
0.342015 0.343401 0.345147 0.34666 0.34755 0.348079 0.348464 0.348699 0.34653 
0.339069 0.329134 0.322955 0.319281 0.318495 0.318114 0.317578 0.316898 0.316518 
0.315355 0.311308 0.30523 0.299781 0.295802 0.293686 0.292937 0.292523 0.292196 
0.291966 0.29185 0.291684 0.291361 0.29102 0.290799 0.290583 0.290334 0.29013 
0.289819 0.332141 0.36829 0.36807 0.36826 0.368463 0.368684 0.36897 0.369144 
0.369326 0.369419 0.369504 0.369463 0.369243 0.368544 0.367452 0.366131 0.364738 
0.363317 0.363063 0.362091 0.3569 0.346327 0.332638 0.322875 0.317074 0.31386 
0.312425 0.311763 0.310283 0.308564 0.307493 0.303691 0.297409 0.290774 0.28615 
0.283454 0.282215 0.281678 0.281181 0.280852 0.280599 0.280415 0.280215 0.279882 
0.279561 0.279395 0.279181 0.278799 0.278498 0.278125 0.361993 0.37111 0.370899 
0.371037 0.371273 0.371662 0.372021 0.372354 0.372468 0.37242 0.372105 0.371572 
0.370568 0.368971 0.366598 0.36437 0.36327 0.362947 0.361969 0.357183 0.346485 
0.332548 0.320735 0.313988 0.310516 0.308609 0.307253 0.306155 0.304738 0.303093 
0.299164 0.291499 0.283653 0.278602 0.275857 0.274546 0.274005 0.273631 0.273165 
0.272899 0.272629 0.272409 0.272236 0.271949 0.271578 0.271292 0.270947 0.270385 
0.270021 0.269712 0.37645 0.371143 0.370802 0.370765 0.370848 0.371033 0.371362 
0.371688 0.371865 0.371699 0.371144 0.370074 0.368563 0.366477 0.363961 0.362015 
0.361381 0.361248 0.356464 0.345812 0.331814 0.319423 0.311659 0.307771 0.305894 
0.304586 0.303159 0.30211 0.30078 0.296862 0.288851 0.279784 0.274036 0.271162 
0.26985 0.269225 0.268903 0.268592 0.268162 0.26789 0.267578 0.267273 0.267054 
0.266755 0.266318 0.265945 0.26561 0.265055 0.264762 0.264466 0.38521 0.370834 
0.370364 0.370126 0.36978 0.369554 0.369472 0.369635 0.369788 0.36966 0.368817 
0.367317 0.365367 0.363625 0.362178 0.361122 0.359409 0.355558 0.344162 0.329733 
0.317503 0.309891 0.305654 0.303277 0.301921 0.301051 0.299995 0.298694 0.295234 
0.28695 0.276686 0.270285 0.267377 0.266137 0.265592 0.265235 0.264901 0.264604 
0.264178 0.263864 0.263564 0.263242 0.262987 0.262638 0.262086 0.26156 0.261133 
0.260431 0.260024 0.25964 0.390204 0.370321 0.369946 0.369637 0.369081 0.368284 
0.367451 0.366784 0.366427 0.366024 0.365277 0.364089 0.362773 0.361821 0.361704 
0.3604 0.354658 0.34225 0.327378 0.315372 0.308038 0.30409 0.301581 0.299795 
0.298663 0.298113 0.296774 0.292979 0.283972 0.273947 0.267418 0.264387 0.263246 
0.262745 0.262421 0.26207 0.261665 0.261383 0.260952 0.260553 0.260208 0.259716 
0.259249 0.258734 0.258085 0.257477 0.25712 0.256506 0.256124 0.255885 0.392962 
0.369191 0.368789 0.368591 0.367902 0.366831 0.365224 0.363441 0.361921 0.361259 
0.361395 0.361777 0.361857 0.361461 0.359093 0.352783 0.339111 0.324397 0.312982 
0.306209 0.302506 0.300329 0.298721 0.297259 0.296256 0.295105 0.290091 0.280616 
0.270544 0.264789 0.262141 0.260851 0.260366 0.260036 0.259657 0.259199 0.258661 
0.258256 0.257709 0.257185 0.256788 0.256232 0.255763 0.255314 0.254769 0.25408 
0.253633 0.252808 0.251961 0.251466 0.393978 0.366718 0.366038 0.365649 0.365027 
0.364152 0.362825 0.3611 0.359393 0.358548 0.359226 0.360767 0.361612 0.358594 
0.350184 0.335065 0.320559 0.309952 0.303941 0.300831 0.29889 0.297622 0.296475 
0.295328 0.292729 0.286478 0.275971 0.26698 0.261934 0.259859 0.259029 0.258264 
0.257796 0.257367 0.256824 0.256296 0.25567 0.255301 0.254844 0.2543 0.253811 
0.253195 0.252503 0.251634 0.250603 0.248942 0.246987 0.24428 0.239968 0.23351 
0.394932 0.363968 0.362862 0.362139 0.361409 0.361013 0.360778 0.360342 0.359486 
0.358336 0.357669 0.357751 0.353586 0.343802 0.329349 0.316555 0.307335 0.301731 
0.298793 0.297427 0.296313 0.295543 0.294605 0.291393 0.28285 0.271367 0.263141 
0.259238 0.25746 0.256687 0.256374 0.255663 0.254999 0.254643 0.254173 0.253814 
0.253094 0.252596 0.251744 0.25059 0.249216 0.247101 0.243715 0.238304 0.230057 
0.218652 0.206751 0.196456 0.187947 0.182432 0.39605 0.360771 0.359984 0.359762 
0.359531 0.3594 0.359712 0.360315 0.361116 0.360091 0.356645 0.348741 0.335995 
0.322298 0.31146 0.304507 0.300178 0.297173 0.295422 0.294632 0.293851 0.292338 
0.288595 0.27861 0.267367 0.25995 0.256675 0.2553 0.25456 0.254043 0.253896 
0.253269 0.252459 0.252196 0.251596 0.250838 0.249246 0.247022 0.243527 0.23684 
0.225648 0.211731 0.198749 0.18841 0.182312 0.179907 0.179017 0.178748 0.178649 
0.178597 0.396782 0.358552 0.358548 0.359383 0.360107 0.360708 0.360802 0.360196 
0.357746 0.35197 0.340993 0.327162 0.315001 0.306566 0.301574 0.298696 0.296919 
0.294922 0.292827 0.291979 0.289983 0.28376 0.273098 0.263623 0.257699 0.254686 
0.25352 0.252903 0.252429 0.251782 0.251481 0.250525 0.248854 0.247358 0.243943 
0.237852 0.227663 0.212654 0.198383 0.187321 0.181627 0.17955 0.178839 0.178687 
0.178605 0.178568 0.178576 0.178576 0.178572 0.178574 0.398846 0.357889 0.35797 
0.359159 0.360962 0.361858 0.360865 0.35659 0.347293 0.33401 0.320156 0.30895 
0.301682 0.298076 0.296397 0.295096 0.29414 0.293217 0.29038 0.284624 0.276254 
0.266509 0.259202 0.255442 0.253676 0.252023 0.251206 0.250976 0.250195 0.248602 
0.246626 0.242993 0.234683 0.220384 0.204742 0.191191 0.183238 0.18013 0.179009 
0.178722 0.178617 0.178569 0.178577 0.178571 0.178571 0.178578 0.178573 0.178571 
0.178573 0.178571 0.405182 0.360533 0.358865 0.357606 0.355433 0.352016 0.344876 
0.335255 0.324532 0.314242 0.305025 0.298395 0.294508 0.293177 0.293101 0.292838 
0.291144 0.287702 0.279807 0.268647 0.259909 0.255624 0.253134 0.251629 0.251004 
0.249017 0.246865 0.244609 0.239491 0.230511 0.215384 0.199834 0.188022 0.182073 
0.1797 0.178927 0.178697 0.178586 0.178577 0.178569 0.17857 0.178578 0.178571 
0.178573 0.178572 0.178568 0.178573 0.178573 0.178573 0.178575 0.412713 0.3647 
0.360185 0.352964 0.34303 0.331714 0.320744 0.311774 0.305527 0.301413 0.298297 
0.294495 0.291339 0.290184 0.290521 0.289421 0.284904 0.275 0.264387 0.256751 
0.252658 0.250932 0.249647 0.248053 0.246865 0.241956 0.230907 0.215039 0.199412 
0.187577 0.18195 0.179677 0.178959 0.178699 0.178588 0.178576 0.178568 0.178574 
0.178573 0.178573 0.178572 0.17857 0.178574 0.178573 0.178575 0.178576 0.178573 
0.178573 0.178573 0.178572 0.409503 0.355128 0.345741 0.334141 0.322484 0.312268 
0.304298 0.299226 0.296693 0.295728 0.295719 0.294791 0.292255 0.288016 0.28261 
0.275542 0.267265 0.259876 0.254629 0.250115 0.246587 0.242702 0.23786 0.228791 
0.214101 0.199281 0.18823 0.182471 0.17992 0.179067 0.178731 0.178601 0.178576 
0.178567 0.178573 0.178572 0.178573 0.17857 0.178573 0.178574 0.178575 0.178575 
0.178573 0.178573 0.178572 0.178572 0.178573 0.178573 0.178573 0.178574 0.393236 
0.336041 0.326249 0.316793 0.308091 0.300742 0.295597 0.292765 0.291574 0.291727 
0.291984 0.290685 0.286425 0.277834 0.267691 0.259888 0.254544 0.250828 0.247824 
0.243953 0.234191 0.219075 0.203134 0.190322 0.183464 0.1804 0.17928 0.178828 
0.178632 0.178586 0.178568 0.178572 0.17857 0.178571 0.17857 0.178574 0.178574 
0.178576 0.178574 0.178573 0.178572 0.178572 0.178573 0.178573 0.178574 0.178573 
0.178573 0.178573 0.178573 0.178573 0.374056 0.317206 0.311802 0.307508 0.302837 
0.298216 0.293974 0.290869 0.2892 0.288163 0.285787 0.280973 0.273265 0.264019 
0.254722 0.24642 0.239281 0.23213 0.221182 0.206575 0.194052 0.185598 0.181408 
0.179681 0.178994 0.178702 0.178607 0.17857 0.178569 0.178567 0.178569 0.178569 
0.178574 0.178575 0.178576 0.178573 0.178572 0.178572 0.178573 0.178573 0.178574 
0.178573 0.178573 0.178573 0.178573 0.178573 0.178573 0.178573 0.178573 0.178573 
0.358615 0.306371 0.304573 0.303653 0.302261 0.299733 0.295957 0.290738 0.284852 
0.278249 0.271615 0.265318 0.258767 0.251478 0.241921 0.228837 0.213794 0.199395 
0.1888 0.183097 0.180432 0.179348 0.17885 0.178656 0.178586 0.178567 0.178563 
0.178566 0.178568 0.178574 0.178577 0.178576 0.178574 0.178572 0.178572 0.178573 
0.178573 0.178573 0.178573 0.178573 0.178573 0.178573 0.178573 0.178573 0.178573 
0.178573 0.178573 0.178573 0.178573 0.178573 0.342525 0.298435 0.298377 0.298748 
0.298146 0.296285 0.29204 0.285124 0.27577 0.265559 0.255054 0.244239 0.232321 
0.218746 0.204761 0.193392 0.185853 0.181778 0.179999 0.179159 0.178783 0.178633 
0.178574 0.17856 0.178559 0.178564 0.178571 0.178577 0.178577 0.178574 0.178572 
0.178572 0.178573 0.178574 0.178573 0.178573 0.178573 0.178573 0.178573 0.178573 
0.178573 0.178573 0.178573 0.178573 0.178573 0.178573 0.178573 0.178573 0.178573 
0.178573 0.46036 0.445259 0.444873 0.444894 0.444612 0.444398 0.444034 0.443677 
0.443184 0.442675 0.442086 0.441556 0.441013 0.440456 0.439559 0.438321 0.436932 
0.435956 0.433908 0.429731 0.423776 0.417307 0.406185 0.387603 0.364703 0.346978 
0.33415 0.325857 0.319325 0.313135 0.306058 0.29579 0.281402 0.262617 0.242625 
0.223982 0.213513 0.210065 0.209328 0.209072 0.209074 0.210102 0.211612 0.212982 
0.214217 0.214996 0.215582 0.216278 0.217096 0.217669 0.573026 0.377062 0.375985 
0.376308 0.376497 0.376701 0.376868 0.377065 0.377188 0.377329 0.377409 0.377531 
0.377581 0.377631 0.377624 0.377724 0.377647 0.37728 0.376663 0.375365 0.3734 
0.36917 0.358588 0.343623 0.331694 0.323939 0.319989 0.317252 0.315171 0.31433 
0.31277 0.310158 0.304848 0.29657 0.288196 0.281531 0.277288 0.276124 0.275841 
0.27564 0.275561 0.275575 0.275476 0.275235 0.275081 0.27501 0.274892 0.274729 
0.274689 0.274525 0.563826 0.384216 0.382875 0.383008 0.383194 0.383343 0.383484 
0.383497 0.383455 0.383245 0.383016 0.382594 0.382041 0.381077 0.37987 0.378524 
0.37733 0.375582 0.374055 0.372102 0.367285 0.356934 0.341552 0.32827 0.320133 
0.315658 0.313448 0.312497 0.310505 0.308484 0.306908 0.302796 0.295749 0.287624 
0.282078 0.278952 0.277542 0.276991 0.276562 0.276289 0.276106 0.275995 0.27588 
0.275606 0.275324 0.275174 0.274957 0.274602 0.27439 0.274074 0.516485 0.379376 
0.378269 0.378369 0.378546 0.378805 0.37906 0.37932 0.379364 0.379319 0.37897 
0.378478 0.377586 0.376269 0.374245 0.372064 0.370636 0.370189 0.368634 0.364558 
0.354137 0.338989 0.324665 0.316182 0.311944 0.309626 0.308072 0.307097 0.30586 
0.304258 0.30068 0.292611 0.283376 0.277359 0.274224 0.27278 0.272169 0.271731 
0.271271 0.271051 0.270866 0.270711 0.270584 0.270332 0.270003 0.269728 0.269358 
0.268828 0.268558 0.268286 0.484705 0.376543 0.375417 0.375339 0.37534 0.375455 
0.37575 0.376014 0.376229 0.376111 0.375719 0.37485 0.37359 0.371798 0.36955 
0.367491 0.366427 0.366645 0.36277 0.352854 0.338177 0.323446 0.31394 0.309252 
0.306951 0.305456 0.303993 0.30288 0.301451 0.297795 0.29011 0.280159 0.273547 
0.270407 0.269018 0.268348 0.267959 0.26757 0.267122 0.266865 0.266617 0.266359 
0.266187 0.265918 0.265511 0.265141 0.264798 0.264256 0.26399 0.263728 0.463949 
0.374962 0.373999 0.373772 0.373451 0.373224 0.373083 0.373126 0.373124 0.372991 
0.372301 0.371091 0.369258 0.367388 0.366083 0.365288 0.363518 0.360311 0.350936 
0.33568 0.321575 0.312446 0.307539 0.304742 0.303151 0.302283 0.301164 0.299593 
0.296388 0.288256 0.277069 0.269925 0.26681 0.26561 0.265121 0.264756 0.264382 
0.264027 0.263547 0.263219 0.26295 0.262645 0.262436 0.262121 0.261613 0.261095 
0.260703 0.26 0.259578 0.259247 0.450349 0.373903 0.373215 0.372926 0.372386 
0.371633 0.370852 0.370126 0.369687 0.369319 0.368649 0.367516 0.366264 0.365038 
0.364262 0.363396 0.359164 0.34825 0.332705 0.319053 0.310419 0.306002 0.303342 
0.301462 0.300124 0.29961 0.29811 0.293788 0.284858 0.274131 0.266948 0.263781 
0.262686 0.262343 0.262141 0.261823 0.261413 0.261095 0.260594 0.260155 0.259805 
0.259314 0.258888 0.258413 0.257842 0.257244 0.256929 0.256301 0.255912 0.255705 
0.444043 0.37248 0.371797 0.371562 0.370902 0.370009 0.368649 0.367086 0.365542 
0.36467 0.364641 0.364754 0.364549 0.364277 0.36181 0.356481 0.344431 0.32888 
0.315819 0.307959 0.30394 0.301777 0.300384 0.299082 0.297843 0.296706 0.291601 
0.281874 0.270946 0.264425 0.261534 0.260242 0.259842 0.259665 0.259444 0.259083 
0.258574 0.258152 0.257541 0.25696 0.256548 0.255981 0.255531 0.255136 0.25466 
0.253997 0.253595 0.25287 0.252011 0.251448 0.439514 0.369968 0.369124 0.368663 
0.368011 0.367184 0.366059 0.364682 0.36331 0.362489 0.362705 0.363724 0.364381 
0.362005 0.354642 0.340171 0.324547 0.31212 0.305047 0.301621 0.299772 0.298585 
0.297542 0.296729 0.294498 0.288896 0.277766 0.26774 0.26204 0.259616 0.258579 
0.257765 0.257359 0.256996 0.256611 0.256226 0.255675 0.255301 0.254797 0.254222 
0.253733 0.253098 0.25239 0.251554 0.25057 0.249024 0.247094 0.244445 0.240219 
0.233954 0.433559 0.36719 0.366153 0.365591 0.364857 0.364352 0.363962 0.363619 
0.363024 0.362096 0.360968 0.360234 0.357514 0.349061 0.334611 0.320366 0.309501 
0.302859 0.299473 0.298092 0.297181 0.296209 0.295106 0.292171 0.284649 0.273171 
0.264098 0.25965 0.257695 0.256736 0.25619 0.255326 0.254689 0.254302 0.253978 
0.253737 0.253115 0.252638 0.251843 0.250698 0.249306 0.24717 0.243927 0.238607 
0.230448 0.219114 0.207245 0.1969 0.188301 0.182603 0.425999 0.363852 0.363312 
0.363121 0.362892 0.36274 0.362661 0.362918 0.363152 0.362682 0.359709 0.353618 
0.341953 0.327634 0.315136 0.306569 0.301551 0.298322 0.296438 0.295563 0.294527 
0.293455 0.289332 0.279913 0.268205 0.260526 0.257032 0.255648 0.2549 0.25432 
0.253994 0.253182 0.252407 0.252014 0.251479 0.250722 0.249258 0.247226 0.243753 
0.237122 0.226144 0.212299 0.199202 0.188706 0.182443 0.179956 0.17903 0.178747 
0.178653 0.178596 0.419435 0.361118 0.361296 0.362283 0.363172 0.363522 0.363142 
0.361948 0.359856 0.354505 0.345605 0.332459 0.319669 0.309817 0.303511 0.300082 
0.298081 0.296259 0.294273 0.29301 0.290835 0.284516 0.27423 0.263768 0.257391 
0.254465 0.253428 0.253002 0.252619 0.252017 0.251742 0.250659 0.249175 0.247531 
0.244186 0.238117 0.227999 0.213002 0.198805 0.187645 0.181749 0.179601 0.178852 
0.17869 0.178606 0.178567 0.178576 0.178577 0.178572 0.178574 0.415873 0.36062 
0.360678 0.36166 0.362753 0.363991 0.363409 0.359995 0.35194 0.339578 0.325037 
0.31276 0.304559 0.299992 0.297668 0.296151 0.295204 0.294526 0.292108 0.286957 
0.278203 0.267814 0.259653 0.255356 0.253358 0.251822 0.251002 0.250815 0.250157 
0.248725 0.246902 0.243191 0.23483 0.221028 0.205082 0.191478 0.183359 0.180187 
0.179027 0.178729 0.178618 0.178568 0.178576 0.178571 0.178571 0.178579 0.178574 
0.178571 0.178573 0.178571 0.415073 0.362404 0.360701 0.359177 0.357219 0.35434 
0.34931 0.340631 0.329519 0.318307 0.308181 0.300743 0.296055 0.294387 0.294088 
0.293521 0.29207 0.288548 0.281697 0.270766 0.261133 0.256189 0.253546 0.251928 
0.251001 0.24919 0.247146 0.244672 0.23987 0.231003 0.216073 0.200631 0.188435 
0.182212 0.179751 0.17894 0.178703 0.178589 0.178577 0.178569 0.17857 0.178578 
0.178572 0.178573 0.178571 0.178568 0.178572 0.178573 0.178573 0.178575 0.414453 
0.365772 0.361731 0.356262 0.348062 0.338011 0.326799 0.316682 0.308986 0.303707 
0.300137 0.296221 0.292924 0.291308 0.291478 0.291204 0.286597 0.276782 0.265629 
0.257457 0.252998 0.251018 0.249891 0.248416 0.246848 0.241774 0.231021 0.21538 
0.199696 0.187843 0.182089 0.179736 0.178978 0.178702 0.178588 0.178576 0.178568 
0.178573 0.178573 0.178573 0.178572 0.178569 0.178574 0.178573 0.178575 0.178576 
0.178574 0.178573 0.178573 0.178572 0.407178 0.358467 0.350483 0.34005 0.328405 
0.317413 0.308476 0.302408 0.299105 0.297555 0.296806 0.295581 0.292821 0.288747 
0.283739 0.277323 0.26935 0.261221 0.255095 0.250127 0.246664 0.243171 0.23839 
0.22977 0.215283 0.200105 0.188551 0.182615 0.179975 0.179085 0.17874 0.178602 
0.178577 0.178568 0.178573 0.178572 0.178572 0.17857 0.178573 0.178574 0.178575 
0.178575 0.178573 0.178573 0.178572 0.178572 0.178573 0.178573 0.178573 0.178574 
0.392709 0.341544 0.332181 0.321982 0.312286 0.303875 0.298079 0.294883 0.293416 
0.293338 0.293056 0.291795 0.287527 0.279693 0.26968 0.261356 0.255377 0.251462 
0.248048 0.244439 0.23454 0.219721 0.203844 0.190878 0.183732 0.1805 0.179304 
0.178837 0.178636 0.178587 0.178568 0.178571 0.17857 0.178571 0.17857 0.178574 
0.178574 0.178575 0.178574 0.178573 0.178572 0.178572 0.178573 0.178573 0.178574 
0.178573 0.178573 0.178573 0.178573 0.178573 0.369722 0.322091 0.316021 0.310615 
0.305422 0.300208 0.295702 0.292548 0.290757 0.289557 0.287504 0.282891 0.275259 
0.265741 0.256192 0.247596 0.239669 0.231968 0.221835 0.207378 0.194612 0.185898 
0.181543 0.179724 0.179013 0.178709 0.178609 0.178572 0.178568 0.178567 0.178569 
0.178569 0.178574 0.178575 0.178576 0.178573 0.178572 0.178572 0.178573 0.178573 
0.178574 0.178573 0.178573 0.178573 0.178573 0.178573 0.178573 0.178573 0.178573 
0.178573 0.348972 0.309758 0.307473 0.30573 0.303772 0.300843 0.296626 0.291329 
0.28556 0.279713 0.273571 0.267475 0.260604 0.252889 0.242816 0.229637 0.214549 
0.200206 0.189208 0.183304 0.180504 0.179378 0.178865 0.17866 0.178589 0.178567 
0.178563 0.178565 0.178568 0.178573 0.178576 0.178576 0.178574 0.178572 0.178572 
0.178573 0.178573 0.178573 0.178573 0.178573 0.178573 0.178573 0.178573 0.178573 
0.178573 0.178573 0.178573 0.178573 0.178573 0.178573 0.334642 0.300532 0.300381 
0.300393 0.299622 0.297702 0.293536 0.286729 0.277903 0.267704 0.257104 0.245738 
0.233543 0.219652 0.205528 0.193919 0.186161 0.181925 0.180052 0.179186 0.178793 
0.178638 0.178575 0.178561 0.178559 0.178564 0.17857 0.178577 0.178578 0.178575 
0.178572 0.178572 0.178573 0.178574 0.178573 0.178573 0.178573 0.178573 0.178573 
0.178573 0.178573 0.178573 0.178573 0.178573 0.178573 0.178573 0.178573 0.178573 
0.178573 0.178573 0.444452 0.437824 0.437452 0.437115 0.436626 0.436119 0.435536 
0.434903 0.43421 0.433478 0.432713 0.431952 0.431154 0.430204 0.428948 0.42742 
0.425766 0.423979 0.421094 0.416331 0.410647 0.405613 0.396873 0.378278 0.357462 
0.34132 0.330023 0.32274 0.317705 0.312732 0.307911 0.300261 0.289231 0.272944 
0.253682 0.234928 0.224961 0.221487 0.220879 0.220903 0.220863 0.221611 0.222719 
0.22397 0.224891 0.225297 0.225636 0.226192 0.226873 0.227297 0.445027 0.395304 
0.394647 0.394848 0.394811 0.394835 0.394756 0.394625 0.394392 0.394101 0.3937 
0.393262 0.392764 0.39223 0.391682 0.391155 0.390268 0.388915 0.387286 0.385324 
0.382712 0.377347 0.365451 0.348341 0.334066 0.325188 0.320144 0.316983 0.314527 
0.313473 0.311221 0.307985 0.301391 0.291233 0.280389 0.272207 0.267447 0.266317 
0.266102 0.265842 0.265727 0.26579 0.265799 0.265697 0.265703 0.265754 0.265716 
0.265619 0.265707 0.265665 0.446311 0.392259 0.391484 0.391704 0.391778 0.391892 
0.391862 0.391768 0.39151 0.391132 0.390627 0.389995 0.38922 0.388193 0.38697 
0.38571 0.384576 0.382815 0.380439 0.378048 0.373529 0.363166 0.346696 0.33123 
0.321801 0.316842 0.314167 0.312569 0.310666 0.308521 0.306619 0.301977 0.293699 
0.283936 0.277347 0.274272 0.272847 0.272368 0.271968 0.271703 0.271544 0.271501 
0.271451 0.271242 0.271035 0.270923 0.27073 0.270423 0.2703 0.270024 0.43206 
0.385154 0.384439 0.384576 0.384609 0.384737 0.384862 0.384962 0.384948 0.38479 
0.384429 0.383816 0.382868 0.381515 0.379739 0.377727 0.376152 0.375299 0.373784 
0.369848 0.35945 0.343488 0.327619 0.317921 0.313273 0.310805 0.309149 0.308124 
0.307094 0.305281 0.301712 0.293173 0.282539 0.275401 0.271906 0.270357 0.269769 
0.269359 0.268957 0.268764 0.268613 0.268491 0.268387 0.268148 0.26785 0.267585 
0.26723 0.266777 0.266572 0.26632 0.420687 0.380724 0.379997 0.380019 0.379918 
0.380037 0.38025 0.380514 0.380661 0.380532 0.379995 0.379006 0.377584 0.375865 