# vtk DataFile Version 5.1
vtk output
ASCII
DATASET POLYDATA
POINTS 1613 float
1.9 0.441267 0.00873303 1.89978 0.444259 0.005961 1.89951 0.447876 0.00261399 
1.90873 0.441267 -8.11114e-08 1.90574 0.444259 -8.11114e-08 1.8993 0.450697 -8.11114e-08 
1.90212 0.447876 -8.11114e-08 1.89919 0.452238 -0.00142792 1.89881 0.457482 -0.00629202 
1.89834 0.463763 -0.012103 1.89779 0.471253 -0.0190429 1.89714 0.480139 -0.027279 
1.89637 0.490616 -0.036986 1.92 0.441267 -0.0112669 1.91978 0.44426 -0.01404 
1.91951 0.447873 -0.017383 1.91919 0.452224 -0.021414 1.9188 0.457449 -0.026249 
1.91834 0.463699 -0.032039 1.94008 0.441267 -0.031347 1.93986 0.444261 -0.034121 
1.93959 0.44787 -0.0374599 1.91689 0.471151 -0.038037 1.90799 0.480048 -0.038037 
1.89629 0.491751 -0.038037 1.89743 0.490603 -0.038037 1.89546 0.502877 -0.048337 
1.89442 0.517106 -0.061526 1.93582 0.452212 -0.038037 1.93061 0.457429 -0.038037 
1.91786 0.470175 -0.038037 1.92436 0.46368 -0.038037 1.91779 0.471146 -0.038936 
1.91713 0.479971 -0.047101 1.91636 0.490367 -0.056727 1.91546 0.502526 -0.067986 
1.94677 0.441267 -0.038037 1.94378 0.444261 -0.038037 1.93954 0.448493 -0.038037 
1.94017 0.44787 -0.038037 1.93927 0.45221 -0.04148 1.93889 0.457415 -0.046305 
1.93843 0.463635 -0.0520649 1.93788 0.471036 -0.058916 1.93723 0.479801 -0.067031 
1.96023 0.441267 -0.051497 1.96001 0.444261 -0.054271 1.95975 0.447866 -0.057616 
1.95944 0.452195 -0.061635 1.95906 0.45738 -0.0664399 1.9586 0.463569 -0.072169 
1.98045 0.441267 -0.071717 1.98024 0.444262 -0.074502 1.89329 0.532379 -0.0756682 
1.90891 0.516758 -0.0756682 1.89321 0.533454 -0.076664 1.89185 0.552025 -0.093875 
1.93554 0.490126 -0.0756682 1.91484 0.510826 -0.0756682 1.92328 0.502388 -0.0756682 
1.91441 0.516626 -0.081036 1.9132 0.53282 -0.09602 1.95472 0.470944 -0.0756682 
1.93653 0.489135 -0.0756682 1.94594 0.479726 -0.0756682 1.93646 0.490115 -0.076575 
1.93557 0.50217 -0.08774 1.93452 0.516141 -0.100661 1.97781 0.447862 -0.0756682 
1.97348 0.452185 -0.0756682 1.9683 0.457364 -0.0756682 1.95832 0.467345 -0.0756682 
1.96211 0.463557 -0.0756682 1.95806 0.470926 -0.078986 1.95742 0.479628 -0.087048 
1.95667 0.48986 -0.09653 1.95578 0.50181 -0.10759 1.9844 0.441267 -0.0756682 
1.98015 0.445519 -0.0756682 1.98141 0.444262 -0.0756682 1.97998 0.447862 -0.077842 
1.97967 0.45218 -0.08185 1.9793 0.457345 -0.086645 1.97886 0.463502 -0.092362 
1.97833 0.470813 -0.099143 1.9777 0.479453 -0.107153 2.00073 0.441267 -0.091997 
2.00052 0.444263 -0.094783 2.00027 0.447858 -0.0981279 1.99997 0.452164 -0.102134 
1.99961 0.457309 -0.106919 2.02106 0.441267 -0.112327 1.89036 0.572143 -0.112505 
1.91127 0.551231 -0.112505 1.89031 0.572848 -0.113158 1.88862 0.595863 -0.134483 
1.91188 0.550622 -0.112505 1.93023 0.532276 -0.112505 1.91184 0.551208 -0.113048 
1.9103 0.571825 -0.132125 1.93357 0.528934 -0.112505 1.94666 0.515846 -0.112505 
1.93333 0.532177 -0.115507 1.93197 0.550382 -0.132352 1.97285 0.489655 -0.112505 
1.95538 0.50712 -0.112505 1.96078 0.50172 -0.112505 1.95475 0.51565 -0.1204 
1.95357 0.531528 -0.135098 1.99907 0.463434 -0.112505 1.99177 0.470738 -0.112505 
1.97728 0.485226 -0.112505 1.9831 0.479406 -0.112505 1.97696 0.489603 -0.116563 
1.97609 0.501446 -0.127536 1.97509 0.515154 -0.140244 2.01824 0.444263 -0.112505 
2.01465 0.447854 -0.112505 2.01035 0.452156 -0.112505 1.99919 0.463317 -0.112505 
2.00521 0.457299 -0.112505 1.99918 0.463434 -0.112614 1.99866 0.4707 -0.11936 
1.99806 0.479276 -0.127336 1.99734 0.489342 -0.136682 1.9965 0.501078 -0.147578 
2.02105 0.441458 -0.112505 2.02124 0.441267 -0.112505 2.02086 0.444263 -0.115123 
2.02062 0.447853 -0.118473 2.02033 0.452148 -0.122478 2.01998 0.457272 -0.127252 
2.01957 0.463366 -0.132936 2.01907 0.470585 -0.139655 2.01848 0.479098 -0.147578 
2.04145 0.441267 -0.132717 2.04125 0.444263 -0.135513 2.04102 0.447849 -0.138869 
2.04075 0.452132 -0.142882 2.04041 0.457235 -0.147645 1.88753 0.610659 -0.148191 
1.90324 0.594947 -0.148191 1.88678 0.620895 -0.157675 1.909 0.589186 -0.148191 
1.92724 0.570955 -0.148191 1.9086 0.594612 -0.153212 1.90676 0.619402 -0.176162 
1.93069 0.567505 -0.148191 1.94849 0.549702 -0.148191 1.93044 0.57079 -0.15123 
1.92876 0.593346 -0.172106 1.95253 0.545664 -0.148191 1.9671 0.531092 -0.148191 
1.95224 0.549547 -0.151787 1.95073 0.569743 -0.170473 1.97446 0.523728 -0.148191 
1.98324 0.514954 -0.148191 1.97394 0.530872 -0.154812 1.97263 0.548704 -0.171334 
2.009 0.489193 -0.148191 1.99645 0.501739 -0.148191 1.99712 0.501067 -0.148191 
1.99552 0.514653 -0.160173 1.9944 0.530211 -0.174611 2.03488 0.463314 -0.148191 
2.02765 0.470536 -0.148191 2.01843 0.479756 -0.148191 2.0191 0.479093 -0.148191 
2.01779 0.48908 -0.15687 2.01698 0.500708 -0.167688 2.01604 0.514149 -0.180189 
2.05692 0.441267 -0.148191 2.05393 0.444263 -0.148191 2.05034 0.447847 -0.148191 
2.04606 0.452128 -0.148191 2.04037 0.45782 -0.148191 2.04096 0.457234 -0.148191 
2.04001 0.463296 -0.153306 2.03954 0.470469 -0.160009 2.03898 0.478917 -0.167897 
2.03831 0.488815 -0.177125 2.06187 0.441267 -0.153137 2.06169 0.444263 -0.155953 
2.06147 0.447844 -0.159314 2.06121 0.452115 -0.163325 2.06089 0.457197 -0.168087 
2.06051 0.463226 -0.173736 2.06006 0.470352 -0.180412 2.08234 0.441267 -0.173607 
2.08217 0.444263 -0.176433 2.08196 0.447839 -0.179799 1.88481 0.647604 -0.182417 
1.88481 0.647652 -0.182462 1.88274 0.675726 -0.208466 1.90626 0.626159 -0.182417 
1.91352 0.618895 -0.182417 1.90479 0.645912 -0.200702 1.92793 0.604488 -0.182417 
1.93977 0.592652 -0.182417 1.92693 0.61789 -0.19482 1.94977 0.582647 -0.182417 
1.96333 0.569091 -0.182417 1.94907 0.592065 -0.191135 1.94727 0.616361 -0.213631 
1.97175 0.560667 -0.182417 1.98419 0.548224 -0.182417 1.97116 0.568686 -0.189846 
1.96953 0.590772 -0.210302 1.99379 0.538623 -0.182417 2.00247 0.529949 -0.182417 
1.99313 0.547853 -0.190983 1.9917 0.567619 -0.209319 2.03198 0.500436 -0.182417 
2.01587 0.516545 -0.182417 2.01832 0.514093 -0.182417 2.01496 0.529544 -0.194504 
2.01374 0.546995 -0.210735 2.05363 0.478788 -0.182417 2.03793 0.494486 -0.182417 
2.04367 0.488745 -0.182417 2.03754 0.500335 -0.187875 2.03664 0.51364 -0.20028 
2.03561 0.528872 -0.214482 2.08032 0.452099 -0.182417 2.07525 0.45717 -0.182417 
2.06922 0.463196 -0.182417 2.05992 0.472492 -0.182417 2.06208 0.47034 -0.182417 
2.05953 0.478736 -0.188266 2.0589 0.488548 -0.197448 2.05816 0.499959 -0.208119 
2.09115 0.441267 -0.182417 2.08815 0.444263 -0.182417 2.0818 0.45062 -0.182417 
2.08458 0.447838 -0.182417 2.08171 0.452098 -0.183808 2.08141 0.457159 -0.188569 
2.08105 0.463155 -0.194205 2.08063 0.470234 -0.200864 2.08013 0.478553 -0.208683 
2.10283 0.441267 -0.194097 2.10267 0.444263 -0.196933 2.10248 0.447834 -0.200314 
2.10225 0.452081 -0.204331 2.10197 0.457121 -0.209091 2.10163 0.463084 -0.214714 
2.12335 0.441267 -0.214617 1.88223 0.6827 -0.214926 1.88991 0.675015 -0.214926 
1.88061 0.704614 -0.235224 1.90365 0.661279 -0.214926 1.92038 0.64455 -0.214926 
1.90272 0.673745 -0.226465 1.92531 0.639618 -0.214926 1.92497 0.644149 -0.219119 
1.92291 0.671738 -0.244648 1.94717 0.61776 -0.214926 1.94867 0.616255 -0.214926 
1.94534 0.642365 -0.237705 1.96916 0.595761 -0.214926 1.97447 0.590459 -0.214926 
1.96777 0.614815 -0.232585 1.99127 0.57366 -0.214926 1.99762 0.567311 -0.214926 
1.99013 0.589466 -0.229596 2.01342 0.551504 -0.214926 2.01811 0.546813 -0.214926 
2.01236 0.566543 -0.228903 2.05166 0.513269 -0.214926 2.03558 0.529348 -0.214926 
2.03607 0.528857 -0.214926 2.03444 0.546132 -0.230572 2.07661 0.488318 -0.214926 
2.05769 0.507236 -0.214926 2.06509 0.499832 -0.214926 2.05731 0.513129 -0.220439 
2.05633 0.528197 -0.234527 2.09477 0.470152 -0.214926 2.07972 0.485206 -0.214926 
2.08643 0.478497 -0.214926 2.07953 0.48828 -0.21781 2.07884 0.499581 -0.228421 
2.07803 0.512614 -0.240644 2.12066 0.444263 -0.214926 2.1171 0.44783 -0.214926 
2.11285 0.452072 -0.214926 2.10782 0.45711 -0.214926 2.10162 0.463309 -0.214926 
2.10184 0.463083 -0.214926 2.10124 0.470115 -0.221355 2.10077 0.478369 -0.229139 
2.10021 0.48801 -0.23822 2.12333 0.441592 -0.214926 2.12366 0.441267 -0.214926 
2.1232 0.444263 -0.217463 2.12302 0.447829 -0.220849 2.12281 0.452064 -0.224874 
2.12255 0.457082 -0.229632 2.12224 0.463012 -0.235252 2.12188 0.469996 -0.241876 
2.14389 0.441267 -0.235157 2.14375 0.444263 -0.238013 2.14359 0.447823 -0.241413 
2.14339 0.452046 -0.245436 1.87979 0.71573 -0.245523 1.89218 0.703338 -0.245523 
1.87847 0.733748 -0.262218 1.90119 0.694333 -0.245523 1.90059 0.702412 -0.253002 
1.92284 0.672683 -0.245523 1.92388 0.671641 -0.245523 1.9208 0.700179 -0.270979 
1.94471 0.65081 -0.245523 1.95391 0.641613 -0.245523 1.94331 0.669706 -0.263016 
1.96675 0.628778 -0.245523 1.98177 0.613757 -0.245523 1.96588 0.640562 -0.256442 
1.98889 0.606634 -0.245523 2.00714 0.588385 -0.245523 1.98841 0.613255 -0.251665 
2.0111 0.584421 -0.245523 2.02989 0.565628 -0.245523 2.01084 0.58815 -0.24899 
2.00919 0.611681 -0.270871 2.03334 0.562179 -0.245523 2.05004 0.545478 -0.245523 
2.03312 0.56546 -0.24858 2.03167 0.586823 -0.268493 2.05556 0.539965 -0.245523 
2.0677 0.527825 -0.245523 2.05521 0.545262 -0.250472 2.05397 0.56437 -0.26834 
2.09626 0.499261 -0.245523 2.07771 0.517814 -0.245523 2.08303 0.51249 -0.245523 
2.07711 0.527517 -0.254627 2.07606 0.544388 -0.270448 2.1173 0.478222 -0.245523 
2.09976 0.495763 -0.245523 2.10761 0.487913 -0.245523 2.09956 0.499201 -0.248761 
2.09881 0.512098 -0.260908 2.13847 0.457052 -0.245523 2.13255 0.462976 -0.245523 
2.12167 0.47385 -0.245523 2.12555 0.469975 -0.245523 2.12144 0.478185 -0.249625 
2.12092 0.487739 -0.258659 2.12032 0.49882 -0.26914 2.15426 0.441267 -0.245523 
2.15126 0.444263 -0.245523 2.1477 0.447822 -0.245523 2.14339 0.452137 -0.245523 
2.14348 0.452046 -0.245523 2.14316 0.457043 -0.250203 2.14287 0.46294 -0.25581 
2.14253 0.469876 -0.262406 2.14213 0.478 -0.27013 2.16444 0.441267 -0.255707 
2.16432 0.444263 -0.258583 2.16417 0.447818 -0.261988 2.16399 0.452028 -0.266018 
[...]
POINT_DATA 1613
FIELD FieldData 5
pressure 1 1613 float
0.179574 0.419383 0.421741 0.17976 0.355541 0.421985 0.395741 0.421904 0.423189 
0.4248 0.42713 0.429328 0.431362 0.179539 0.203989 0.221552 0.25299 0.282899 
0.316266 0.181525 0.186789 0.184604 0.352414 0.40195 0.431493 0.429797 0.432838 
0.433599 0.20402 0.235879 0.344619 0.289024 0.348935 0.379353 0.402515 0.41689 
0.182085 0.186424 0.18596 0.184607 0.19378 0.202828 0.225458 0.252441 0.287289 
0.183175 0.184737 0.183725 0.184411 0.185199 0.189806 0.183576 0.183337 0.433883 
0.427327 0.433898 0.433851 0.329185 0.421668 0.395662 0.424897 0.42921 0.207105 
0.321998 0.25871 0.325647 0.361998 0.391428 0.182398 0.181872 0.182925 0.194039 
0.188065 0.198283 0.221347 0.253472 0.292268 0.183608 0.182967 0.183394 0.182245 
0.180832 0.180072 0.179993 0.182097 0.190889 0.183667 0.184483 0.183274 0.182305 
0.181219 0.183583 0.43373 0.431497 0.433722 0.433483 0.431358 0.414174 0.431428 
0.432512 0.40736 0.355274 0.411453 0.422592 0.216234 0.307264 0.278657 0.331322 
0.366819 0.180373 0.18057 0.199874 0.188303 0.206733 0.236887 0.273568 0.18481 
0.184188 0.183461 0.180396 0.182121 0.180377 0.180066 0.180962 0.185671 0.201135 
0.183663 0.183584 0.184802 0.18442 0.184226 0.183897 0.183038 0.181524 0.179505 
0.183652 0.183326 0.183911 0.184034 0.183943 0.4337 0.433197 0.433777 0.432943 
0.428983 0.433046 0.433851 0.427417 0.400531 0.428309 0.431401 0.389361 0.33086 
0.395486 0.414526 0.294883 0.255732 0.312601 0.349648 0.181878 0.202477 0.200631 
0.228792 0.26424 0.183437 0.181963 0.179476 0.17955 0.179203 0.185169 0.198835 
0.18329 0.182642 0.183248 0.183651 0.183913 0.183896 0.183655 0.182737 0.181315 
0.180371 0.18318 0.182197 0.182484 0.182644 0.18228 0.18231 0.18244 0.183077 
0.182132 0.182122 0.436107 0.436111 0.447559 0.434817 0.434071 0.437646 0.432817 
0.428243 0.434452 0.420913 0.394374 0.425572 0.433811 0.368925 0.32297 0.381861 
0.407954 0.282399 0.249508 0.302352 0.339913 0.1832 0.203149 0.197275 0.22646 
0.261306 0.182573 0.181378 0.180914 0.182446 0.184578 0.200834 0.18258 0.182266 
0.182214 0.182592 0.182425 0.182953 0.182226 0.181141 0.183078 0.182252 0.182418 
0.182159 0.182579 0.182301 0.182125 0.182317 0.182675 0.183069 0.182421 0.182254 
0.183043 0.18296 0.182715 0.182976 0.457335 0.448878 0.489279 0.445298 0.44053 
0.451662 0.440168 0.441374 0.463843 0.434565 0.433478 0.448008 0.412341 0.400289 
0.429055 0.349908 0.328299 0.375986 0.270087 0.254269 0.299483 0.18192 0.201598 
0.200591 0.22838 0.182235 0.18104 0.18122 0.180921 0.189787 0.182443 0.182374 
0.18253 0.182271 0.181564 0.181953 0.182253 0.182058 0.182907 0.182955 0.182706 
0.182717 0.182482 0.182286 0.182201 0.182897 0.182971 0.182234 0.182001 0.182834 
0.183049 0.183014 0.18288 0.182608 0.181789 0.181598 0.182141 0.518024 0.491277 
0.565974 0.481029 0.492955 0.465624 0.464792 0.518983 0.458934 0.451731 0.484201 
0.444166 0.418425 0.457277 0.402986 0.347138 0.413525 0.33376 0.27045 0.340947 
0.391107 0.258917 0.210592 0.265164 0.31027 0.200086 0.188472 0.204719 0.237875 
0.182499 0.183836 0.182492 0.18724 0.193743 0.182589 0.182545 0.182507 0.182673 
0.184013 0.182695 0.182854 0.182775 0.182911 0.182646 0.182928 0.184256 0.182459 
0.181747 0.181621 0.182149 0.182141 0.182563 0.182624 0.18297 0.183504 0.182327 
0.181667 0.181648 0.182025 0.182639 0.574742 0.562468 0.584117 0.546055 0.560551 
0.525356 0.524032 0.572737 0.511238 0.499571 0.548494 0.494194 0.46254 0.510204 
0.460296 0.462943 0.532044 0.400628 0.387661 0.461452 0.325671 0.303397 0.370546 
0.251754 0.232905 0.286063 0.186828 0.199266 0.193712 0.220037 0.18667 0.185728 
0.186829 0.193149 0.184254 0.185205 0.184911 0.186636 0.190129 0.182908 0.183345 
0.184031 0.183836 0.184739 0.187016 0.182346 0.18216 0.182237 0.182409 0.182822 
0.182856 0.182951 0.183647 0.185252 0.187995 0.182346 0.182348 0.182688 0.183139 
0.184064 0.184921 0.182653 0.184083 0.581592 0.581142 0.5782 0.575759 0.579576 
0.573525 0.573201 0.579252 0.560374 0.562044 0.575276 0.554197 0.570172 0.532537 
0.532084 0.479765 0.457692 0.533822 0.40559 0.361508 0.449222 0.324858 0.274966 
0.353274 0.250232 0.21639 0.26816 0.205235 0.195678 0.214425 0.190088 0.193124 
0.191824 0.198054 0.189988 0.189327 0.190262 0.195876 0.185751 0.186822 0.188277 
0.188184 0.191318 0.196359 0.184733 0.184908 0.18555 0.185568 0.185618 0.186128 
0.188512 0.192384 0.182837 0.184297 0.184196 0.185016 0.185801 0.187354 0.18916 
0.191328 0.183601 0.187092 0.188683 0.577208 0.575331 0.575703 0.575086 0.573301 
0.579019 0.579142 0.575816 0.57408 0.576527 0.572135 0.577691 0.572808 0.57605 
0.578178 0.544315 0.529121 0.578977 0.481137 0.439589 0.517379 0.405657 0.341736 
0.432242 0.324166 0.259855 0.338157 0.252488 0.218494 0.258434 0.215309 0.204929 
0.219126 0.20332 0.200455 0.207677 0.196098 0.198342 0.197908 0.205551 0.192878 
0.19489 0.194244 0.198042 0.207583 0.189462 0.190662 0.191412 0.191666 0.191619 
0.195213 0.201092 0.184364 0.188352 0.189042 0.189031 0.190111 0.192621 0.195888 
0.200024 0.185631 0.192923 0.195656 0.575137 0.572655 0.574036 0.570643 0.571522 
0.568963 0.572051 0.571112 0.575771 0.57671 0.575047 0.577826 0.577383 0.579504 
0.580014 0.581257 0.578638 0.53816 0.510228 0.575587 0.473129 0.419179 0.501545 
0.397754 0.32636 0.414303 0.319893 0.25733 0.325186 0.256738 0.23098 0.25732 
0.23022 0.221001 0.2316 0.219583 0.215955 0.224549 0.208521 0.213362 0.212218 
0.225134 0.204413 0.207241 0.206224 0.211335 0.229285 0.197587 0.199383 0.200789 
0.202271 0.20172 0.207743 0.218446 0.187569 0.196389 0.197268 0.197404 0.198162 
0.202334 0.207878 0.215457 0.189971 0.204906 0.209785 0.573709 0.572956 0.572818 
0.569589 0.568201 0.57017 0.568501 0.572573 0.567295 0.572671 0.572601 0.581812 
0.585735 0.591014 0.601479 0.600595 0.602749 0.607205 0.585986 0.574628 0.52876 
0.494387 0.570732 0.460026 0.40388 0.488086 0.386514 0.319582 0.401143 0.315711 
0.267743 0.319359 0.26773 0.251611 0.267748 0.251181 0.246263 0.252746 0.244935 
0.242202 0.251971 0.230159 0.238018 0.23609 0.255456 0.222961 0.228098 0.226435 
0.234916 0.259465 0.2122 0.21445 0.216241 0.218634 0.217699 0.228738 0.245662 
0.193428 0.210597 0.211847 0.212266 0.21366 0.220042 0.22868 0.198077 0.22585 
0.572796 0.57275 0.57066 0.571248 0.572242 0.570059 0.575454 0.573491 0.578301 
0.595306 0.581444 0.595533 0.595881 0.622574 0.627979 0.644244 0.642772 0.675287 
0.640008 0.65295 0.581344 0.57039 0.51676 0.484975 0.569531 0.447368 0.397845 
0.482504 0.377488 0.324674 0.397285 0.318021 0.289246 0.326052 0.287906 0.28187 
0.291685 0.280998 0.278061 0.28687 0.2755 0.27202 0.288511 0.257569 0.264775 
0.263507 0.291211 0.239587 0.246988 0.253633 0.251989 0.268382 0.233076 0.23345 
0.235183 0.239249 0.237373 0.240334 0.259117 0.201764 0.232854 0.230095 0.233338 
0.238822 0.24712 0.259211 0.210351 0.572819 0.572842 0.572419 0.573018 0.576904 
0.584405 0.597579 0.621867 0.625664 0.637353 0.675311 0.663788 0.679041 0.687698 
0.697863 0.695146 0.698518 0.66339 0.746709 0.643337 0.668182 0.569691 0.569501 
0.501086 0.480583 0.43276 0.398048 0.477986 0.370581 0.338359 0.399879 0.328703 
0.316212 0.344249 0.314166 0.311872 0.324612 0.309711 0.307196 0.322819 0.293192 
0.30258 0.30024 0.323872 0.281091 0.292071 0.287338 0.296772 0.266369 0.28055 
0.273357 0.282226 0.308904 0.25162 0.255372 0.255758 0.257295 0.263057 0.261655 
0.274634 0.295285 0.238618 0.211546 0.252937 0.261609 0.267889 0.276162 0.573989 
0.576761 0.574184 0.576518 0.589689 0.577809 0.590395 0.593209 0.629892 0.633966 
0.698628 0.715318 0.753981 0.757484 0.813462 0.763307 0.788397 0.747501 0.745596 
0.683138 0.657635 0.612181 0.563724 0.640751 0.547777 0.561301 0.48085 0.477075 
0.415331 0.399381 0.364739 0.351363 0.340453 0.336488 0.359024 0.334035 0.333391 
0.348701 0.325515 0.330844 0.329863 0.348378 0.32526 0.319844 0.326495 0.30662 
0.317221 0.314816 0.333938 0.282558 0.2889 0.300908 0.29802 0.318045 0.221371 
0.266654 0.271129 0.273266 0.278921 0.2771 0.28875 0.304688 0.224013 0.27356 
0.280835 0.576107 0.582249 0.577132 0.583718 0.609687 0.590271 0.620119 0.675177 
0.647341 0.698068 0.758168 0.740208 0.774372 0.79854 0.814278 0.813175 0.791921 
0.781788 0.758928 0.721011 0.70344 0.710361 0.641994 0.636523 0.573983 0.548818 
0.510204 0.46664 0.530978 0.448897 0.396955 0.461252 0.394556 0.396592 0.360867 
0.3593 0.350098 0.349648 0.346481 0.348759 0.348766 0.345888 0.342316 0.349378 
0.334037 0.341255 0.339317 0.350904 0.314581 0.331597 0.32376 0.339025 0.284463 
0.287724 0.294223 0.309413 0.305848 0.321182 0.228794 0.275783 0.28391 0.281548 
0.285737 0.292809 0.579859 0.589746 0.582838 0.595848 0.619377 0.663373 0.678848 
0.76638 0.769412 0.821613 0.817956 0.827698 0.802963 0.793925 0.765722 0.79289 
0.764796 0.764909 0.710396 0.691104 0.648473 0.609164 0.588887 0.596309 0.531672 
0.529578 0.469545 0.452174 0.413091 0.389426 0.373777 0.36068 0.382136 0.357016 
0.353876 0.3601 0.353482 0.353654 0.35444 0.353532 0.352689 0.354503 0.34876 
0.352279 0.351735 0.333615 0.347694 0.341411 0.351159 0.302108 0.310705 0.331482 
0.322614 0.335322 0.233027 0.278511 0.284187 0.286861 0.301646 0.293221 0.30239 
0.313751 0.233038 0.279718 0.286225 0.614704 0.585829 0.597632 0.592665 0.615757 
0.713156 0.619567 0.728614 0.795549 0.75885 0.826166 0.830614 0.852503 0.843427 
0.831756 0.849015 0.832246 0.832367 0.790385 0.782502 0.754722 0.734947 0.710173 
0.661281 0.653342 0.654463 0.599374 0.587338 0.541838 0.509153 0.482263 0.436832 
0.49293 0.427917 0.432385 0.383095 0.38122 0.360857 0.358666 0.353491 0.352914 
0.353036 0.353335 0.353393 0.353015 0.351366 0.353135 0.343638 0.351147 0.349114 
0.350977 0.323445 0.341995 0.333596 0.343577 0.289 0.293874 0.301681 0.318193 
0.312581 0.323467 0.234408 0.279459 0.288771 0.285665 0.289092 0.294312 0.641677 
0.60184 0.649816 0.716635 0.677641 0.789203 0.791035 0.856969 0.851638 0.845881 
0.836427 0.819967 0.808519 0.78436 0.75889 0.748287 0.710819 0.744577 0.710422 
0.710451 0.658998 0.640038 0.60568 0.56984 0.55214 0.55889 0.493566 0.492105 
0.439195 0.424124 0.391762 0.373621 0.362919 0.3545 0.352044 0.349728 0.351278 
0.349866 0.349952 0.347476 0.350052 0.34978 0.345888 0.349795 0.349608 0.330357 
0.343781 0.339274 0.343691 0.300491 0.309269 0.326563 0.320397 0.329277 0.236596 
0.278875 0.28398 0.287609 0.298308 0.293283 0.300331 0.236965 0.278274 0.660793 
0.815551 0.689319 0.704692 0.83661 0.836298 0.851417 0.860027 0.843555 0.857078 
0.839285 0.815334 0.808186 0.786518 0.80024 0.780448 0.779555 0.744566 0.741502 
0.711907 0.695458 0.665843 0.624997 0.612589 0.617762 0.561221 0.555599 0.504397 
0.479315 0.448686 0.413418 0.399783 0.367012 0.405905 0.364997 0.365456 0.351299 
0.351068 0.347166 0.347236 0.347154 0.347142 0.345835 0.346792 0.345654 0.344608 
0.343596 0.334695 0.34251 0.341484 0.306291 0.31597 0.330301 0.326698 0.332137 
0.282289 0.285705 0.291054 0.305787 0.298163 0.306194 0.23728 0.282238 0.276726 
0.282282 0.285065 0.721077 0.730629 0.789555 0.745317 0.861822 0.853011 0.831922 
0.856353 0.855106 0.831699 0.831466 0.799803 0.798678 0.77835 0.772482 0.746347 
0.731574 0.714222 0.684153 0.673151 0.677843 0.621007 0.615006 0.570537 0.545683 
0.51452 0.46914 0.457677 0.463602 0.407476 0.404676 0.369386 0.36199 0.351005 
0.347398 0.344764 0.343958 0.343585 0.343375 0.34112 0.342445 0.342286 0.340577 
0.337769 0.340082 0.312635 0.322433 0.332233 0.331677 0.289537 0.296038 0.311494 
0.303922 0.312408 0.237705 0.274173 0.279325 0.287432 0.284137 0.289351 0.847462 
0.779885 0.872118 0.850201 0.873731 0.848805 0.838383 0.825184 0.819198 0.799488 
0.791072 0.778292 0.764145 0.74911 0.724179 0.717311 0.720095 0.679319 0.675387 
0.629202 0.607153 0.578498 0.537419 0.524627 0.531154 0.466963 0.461508 0.416038 
0.398835 0.374794 0.358411 0.351918 0.345245 0.3439 0.342279 0.342059 0.341532 
0.340954 0.340454 0.335253 0.339551 0.339238 0.319624 0.332786 0.328407 0.333914 
0.29473 0.302499 0.316154 0.311219 0.319017 0.238443 0.272371 0.277332 0.282274 
0.293078 0.28852 0.294654 0.238467 0.271062 0.821774 0.84454 0.873078 0.869083 
0.843039 0.827821 0.840769 0.821781 0.811051 0.800887 0.786202 0.779714 0.758666 
0.752815 0.755415 0.720973 0.718928 0.684373 0.668331 0.636482 0.600264 0.585444 
0.532583 0.529798 0.475833 0.455416 0.423673 0.39383 0.379946 0.355733 0.353196 
0.343972 0.354017 0.343731 0.341506 0.343689 0.341453 0.340672 0.341376 0.340452 
0.339563 0.340287 0.33898 0.33806 0.326883 0.334065 0.333686 0.301356 0.30989 
0.320295 0.318865 0.27635 0.281489 0.287458 0.29849 0.294281 0.30132 0.238166 
0.272624 0.270631 0.276025 0.847698 0.870934 0.857343 0.822889 0.8403 0.839273 
0.821438 0.806877 0.822223 0.803014 0.783365 0.805293 0.781439 0.782526 0.756177 
0.754482 0.72448 0.714112 0.688759 0.662443 0.642874 0.59454 0.59185 0.593133 
0.53996 0.524388 0.483586 0.450169 0.430286 0.389471 0.384627 0.387135 0.355082 
0.353619 0.344382 0.343244 0.341343 0.341115 0.339203 0.34023 0.340161 0.33906 
0.337708 0.339328 0.326476 0.335539 0.333395 0.309368 0.323505 0.318007 0.326215 
0.281143 0.286833 0.293342 0.303431 0.301269 0.238141 0.27049 0.278784 0.275674 
0.280871 0.865878 0.871733 0.851858 0.872991 0.841816 0.83648 0.823365 0.821635 
0.805858 0.804917 0.784004 0.781455 0.75921 0.751084 0.727843 0.710187 0.692504 
0.657185 0.648087 0.596947 0.589243 0.545578 0.518939 0.490231 0.445378 0.435987 
0.389359 0.386057 0.35848 0.352683 0.345536 0.343091 0.341696 0.341191 0.340603 
0.340433 0.337993 0.339709 0.339644 0.336989 0.333243 0.338255 0.309746 0.318151 
0.32649 0.326189 0.286586 0.293073 0.308042 0.300875 0.309784 0.238121 0.269445 
0.27508 0.283388 0.280547 0.286167 0.849796 0.870243 0.844265 0.835212 0.825654 
0.820631 0.808282 0.803569 0.786623 0.779677 0.762221 0.748502 0.731081 0.707278 
0.696343 0.653349 0.653333 0.653339 0.601959 0.585195 0.550866 0.514424 0.495901 
0.441085 0.440803 0.440943 0.394178 0.383531 0.361195 0.35173 0.346355 0.342813 
0.341873 0.341163 0.340777 0.340553 0.340096 0.339992 0.333558 0.338289 0.338263 
0.318624 0.329312 0.326846 0.293165 0.301092 0.31191 0.309706 0.237666 0.26742 
0.273866 0.280043 0.287231 0.286024 0.849389 0.868152 0.846643 0.834412 0.827324 
0.819595 0.80981 0.801631 0.788349 0.77752 0.763609 0.745028 0.73274 0.703637 
0.698407 0.655705 0.648172 0.605219 0.580872 0.554811 0.51003 0.500588 0.445384 
0.437717 0.398287 0.381296 0.363668 0.350847 0.346914 0.342289 0.341606 0.340495 
0.34019 0.339793 0.339456 0.33925 0.332739 0.337988 0.337393 0.317928 0.330247 
0.326008 0.293023 0.301025 0.314637 0.309532 0.238935 0.265527 0.273277 0.279896 
0.291129 0.28634 
velocity_u 1 1613 float
-0.0970895 0.522702 0.589584 -0.000274245 0.592699 0.619688 0.616663 0.636419 0.674578 
0.708458 0.737958 0.757129 0.762055 0.124572 0.773476 0.805911 0.803749 0.803606 
0.800484 0.287713 0.739381 0.837001 0.795416 0.77731 0.762053 0.763301 0.762024 
0.761783 0.853979 0.849585 0.798475 0.8259 0.798051 0.79375 0.785081 0.775254 
0.3307 0.734909 0.840778 0.836959 0.863999 0.881335 0.885997 0.885647 0.87312 
0.413556 0.727013 0.838931 0.877659 0.901353 0.920599 0.477043 0.709864 0.76167 
0.766906 0.761666 0.761576 0.847242 0.771458 0.793395 0.768894 0.765432 0.924465 
0.852433 0.898599 0.850243 0.822178 0.797282 0.83445 0.879921 0.903736 0.926302 
0.922491 0.932009 0.931982 0.915581 0.885306 0.481781 0.753236 0.708523 0.833679 
0.881071 0.908162 0.932934 0.951615 0.963497 0.499091 0.680117 0.816897 0.877857 
0.907779 0.503659 0.761484 0.763466 0.761482 0.76155 0.763581 0.778067 0.763521 
0.762426 0.783817 0.82946 0.780353 0.770942 0.951908 0.87205 0.89828 0.850757 
0.818936 0.932745 0.952686 0.962195 0.965743 0.961119 0.938028 0.904627 0.656435 
0.797894 0.873111 0.932262 0.906473 0.932732 0.953162 0.972008 0.980619 0.97303 
0.51317 0.503726 0.653734 0.791073 0.868644 0.902214 0.928015 0.95112 0.972926 
0.516016 0.643536 0.769159 0.859943 0.899623 0.761469 0.761765 0.761517 0.761994 
0.765399 0.761891 0.761465 0.766747 0.78973 0.765968 0.763366 0.79935 0.851585 
0.794025 0.777743 0.884721 0.921862 0.868174 0.834463 0.984442 0.971812 0.973525 
0.947939 0.913902 0.926301 0.950343 0.973871 0.972851 0.987227 0.988899 0.977354 
0.526173 0.642217 0.761086 0.857227 0.902125 0.899556 0.926027 0.948967 0.970501 
0.985496 0.528329 0.63961 0.749284 0.848886 0.898878 0.927153 0.948324 0.533717 
0.631396 0.728482 0.760414 0.760411 0.754442 0.761018 0.761472 0.759669 0.7625 
0.766156 0.761439 0.772405 0.795178 0.768484 0.762687 0.817435 0.859006 0.805991 
0.783854 0.896769 0.928375 0.877961 0.843638 0.990723 0.973225 0.978904 0.950949 
0.917171 0.968697 0.988408 0.984835 0.991372 0.991556 0.976552 0.833196 0.896294 
0.926854 0.953332 0.948234 0.967906 0.9831 0.992483 0.534354 0.628877 0.796031 
0.726076 0.832126 0.894516 0.925248 0.946949 0.966786 0.538184 0.626701 0.713766 
0.813534 0.885679 0.921421 0.545242 0.749483 0.753897 0.733118 0.755894 0.758138 
0.752706 0.758329 0.757673 0.746498 0.762252 0.763059 0.754519 0.780571 0.790679 
0.76813 0.834975 0.85444 0.812372 0.908926 0.924035 0.881306 0.994143 0.975805 
0.976804 0.949342 0.982452 0.993948 0.992301 0.995183 0.987781 0.945766 0.977388 
0.966482 0.982326 0.991781 0.994067 0.625797 0.706799 0.804754 0.882782 0.922176 
0.921377 0.945633 0.966455 0.981773 0.553972 0.545353 0.625081 0.702878 0.795509 
0.876325 0.919513 0.944542 0.548253 0.621694 0.693103 0.779052 0.718448 0.73248 
0.694085 0.737954 0.732003 0.745623 0.746033 0.719474 0.749067 0.753422 0.736478 
0.759346 0.778739 0.751783 0.791723 0.8391 0.783677 0.851175 0.909259 0.84486 
0.806391 0.920302 0.966632 0.914357 0.874599 0.977151 0.989015 0.972394 0.94127 
0.990523 0.992633 0.993524 0.990115 0.9831 0.965801 0.987663 0.981275 0.990285 
0.99195 0.867781 0.918331 0.954482 0.944376 0.965514 0.980371 0.988358 0.549452 
0.620548 0.691403 0.78062 0.778991 0.865222 0.916332 0.943055 0.963497 0.552812 
0.621381 0.68752 0.766999 0.852281 0.690861 0.696917 0.687582 0.705639 0.698394 
0.716369 0.717065 0.693118 0.723378 0.729217 0.705252 0.732555 0.752735 0.72421 
0.754429 0.752779 0.716315 0.800206 0.810085 0.760772 0.862796 0.881552 0.82857 
0.929097 0.946227 0.899063 0.990642 0.978038 0.983098 0.95896 0.990722 0.990172 
0.990636 0.98362 0.978364 0.988729 0.987616 0.98923 0.987251 0.911326 0.941751 
0.969735 0.962936 0.977816 0.985363 0.557044 0.621271 0.684307 0.762529 0.886619 
0.849891 0.910849 0.940936 0.960861 0.97425 0.557053 0.620106 0.680594 0.754038 
0.836853 0.903147 0.555262 0.614025 0.688509 0.688655 0.689715 0.691072 0.689215 
0.692613 0.693138 0.688661 0.699962 0.698841 0.693296 0.702818 0.695057 0.716053 
0.716369 0.750637 0.765669 0.720782 0.805291 0.838615 0.776363 0.869345 0.910343 
0.847638 0.932741 0.96247 0.917181 0.972736 0.980976 0.964486 0.985691 0.98399 
0.985525 0.978638 0.985499 0.982952 0.985507 0.981347 0.937468 0.958929 0.974827 
0.974054 0.980855 0.979234 0.67202 0.744677 0.829062 0.921284 0.901173 0.9368 
0.95668 0.96934 0.554823 0.626824 0.613785 0.670814 0.740053 0.819193 0.890669 
0.929109 0.553076 0.607999 0.66121 0.690162 0.691535 0.691239 0.691818 0.692921 
0.688803 0.688706 0.692019 0.693889 0.689893 0.694668 0.69191 0.694554 0.692853 
0.691709 0.714485 0.725063 0.693339 0.757247 0.786474 0.735526 0.811998 0.859684 
0.793911 0.874076 0.924977 0.863342 0.93149 0.960296 0.926334 0.963105 0.971671 
0.959617 0.973459 0.976672 0.968777 0.975943 0.977552 0.977668 0.971445 0.951604 
0.971491 0.967373 0.973936 0.96796 0.728731 0.807941 0.885269 0.930872 0.928722 
0.948779 0.959994 0.552 0.606426 0.678201 0.66067 0.726255 0.800273 0.873659 
0.916837 0.548309 0.598431 0.64752 0.691671 0.693078 0.692153 0.694305 0.693553 
0.695143 0.693135 0.693741 0.690366 0.689853 0.692106 0.691838 0.689613 0.690977 
0.690618 0.691816 0.693895 0.72236 0.74207 0.698645 0.767927 0.805818 0.749843 
0.821789 0.873987 0.810206 0.879118 0.926387 0.875026 0.926889 0.94736 0.926379 
0.947991 0.95509 0.946713 0.956691 0.960942 0.951512 0.963308 0.96264 0.963342 