# vtk DataFile Version 5.1
vtk output
ASCII
DATASET STRUCTURED_GRID
DIMENSIONS 28 13 30
POINTS 10920 float
3.36229 0.665763 0.415865 3.3623 0.691522 0.415865 3.3623 0.717859 0.415865 
3.36231 0.744493 0.415865 3.36231 0.771126 0.415865 3.36231 0.797464 0.415865 
3.36232 0.823223 0.415865 3.36232 0.848145 0.415865 3.36233 0.872007 0.415865 
3.36233 0.894626 0.415865 3.36233 0.915866 0.415865 3.36234 0.935632 0.415865 
3.36234 0.953877 0.415865 3.36234 0.970588 0.415865 3.36234 0.985789 0.415865 
3.36235 0.999528 0.415865 3.36235 1.01188 0.415865 3.36235 1.02291 0.415865 
3.36235 1.03274 0.415865 3.36235 1.04144 0.415865 3.36235 1.04913 0.415865 
3.36235 1.0559 0.415865 3.36235 1.06184 0.415865 3.36236 1.06704 0.415865 
3.36236 1.07159 0.415865 3.36236 1.07555 0.415865 3.36236 1.079 0.415865 
3.36236 1.082 0.415865 3.39351 0.664562 0.415865 3.39352 0.690412 0.415865 
3.39352 0.716844 0.415865 3.39352 0.743574 0.415865 3.39353 0.770303 0.415865 
3.39353 0.796735 0.415865 3.39353 0.822585 0.415865 3.39353 0.847594 0.415865 
3.39354 0.871536 0.415865 3.39354 0.894229 0.415865 3.39354 0.915534 0.415865 
3.39355 0.93536 0.415865 3.39355 0.953655 0.415865 3.39355 0.970411 0.415865 
3.39355 0.985649 0.415865 3.39355 0.99942 0.415865 3.39355 1.01179 0.415865 
3.39356 1.02285 0.415865 3.39356 1.03269 0.415865 3.39356 1.04141 0.415865 
3.39356 1.04911 0.415865 3.39356 1.05588 0.415865 3.39356 1.06183 0.415865 
3.39356 1.06704 0.415865 3.39356 1.07158 0.415865 3.39356 1.07555 0.415865 
3.39356 1.079 0.415865 3.39356 1.082 0.415865 3.42521 0.663343 0.415865 
3.42521 0.689285 0.415865 3.42521 0.715813 0.415865 3.42521 0.74264 0.415865 
3.42522 0.769467 0.415865 3.42522 0.795995 0.415865 3.42522 0.821938 0.415865 
3.42522 0.847034 0.415865 3.42522 0.871057 0.415865 3.42522 0.893825 0.415865 
3.42523 0.915197 0.415865 3.42523 0.935083 0.415865 3.42523 0.953431 0.415865 
3.42523 0.970231 0.415865 3.42523 0.985507 0.415865 3.42523 0.99931 0.415865 
3.42523 1.01171 0.415865 3.42523 1.02279 0.415865 3.42523 1.03265 0.415865 
3.42523 1.04138 0.415865 3.42524 1.04909 0.415865 3.42524 1.05587 0.415865 
3.42524 1.06182 0.415865 3.42524 1.06703 0.415865 3.42524 1.07158 0.415865 
3.42524 1.07555 0.415865 3.42524 1.079 0.415865 3.42524 1.082 0.415865 
3.45737 0.662106 0.415865 3.45737 0.688142 0.415865 3.45737 0.714767 0.415865 
3.45737 0.741693 0.415865 3.45737 0.76862 0.415865 3.45737 0.795245 0.415865 
3.45737 0.821281 0.415865 3.45737 0.846465 0.415865 3.45737 0.870572 0.415865 
3.45737 0.893415 0.415865 3.45737 0.914856 0.415865 3.45737 0.934802 0.415865 
3.45737 0.953203 0.415865 3.45738 0.970049 0.415865 3.45738 0.985364 0.415865 
3.45738 0.999198 0.415865 3.45738 1.01162 0.415865 3.45738 1.02272 0.415865 
3.45738 1.0326 0.415865 3.45738 1.04135 0.415865 3.45738 1.04906 0.415865 
3.45738 1.05586 0.415865 3.45738 1.06181 0.415865 3.45738 1.06703 0.415865 
3.45738 1.07158 0.415865 3.45738 1.07555 0.415865 3.45738 1.079 0.415865 
3.45738 1.082 0.415865 3.48998 0.660851 0.415865 3.48998 0.686983 0.415865 
3.48998 0.713706 0.415865 3.48998 0.740733 0.415865 3.48998 0.767759 0.415865 
3.48998 0.794483 0.415865 3.48998 0.820614 0.415865 3.48998 0.845889 0.415865 
3.48998 0.870079 0.415865 3.48998 0.893 0.415865 3.48998 0.91451 0.415865 
3.48998 0.934517 0.415865 3.48998 0.952971 0.415865 3.48998 0.969864 0.415865 
3.48998 0.985218 0.415865 3.48998 0.999085 0.415865 3.48998 1.01154 0.415865 
3.48998 1.02266 0.415865 3.48998 1.03255 0.415865 3.48998 1.04131 0.415865 
3.48998 1.04904 0.415865 3.48998 1.05584 0.415865 3.48998 1.0618 0.415865 
3.48998 1.06702 0.415865 3.48998 1.07158 0.415865 3.48998 1.07555 0.415865 
3.48998 1.079 0.415865 3.48998 1.082 0.415865 3.52305 0.659579 0.415865 
3.52305 0.685807 0.415865 3.52305 0.71263 0.415865 3.52305 0.739759 0.415865 
3.52305 0.766887 0.415865 3.52304 0.793711 0.415865 3.52304 0.819938 0.415865 
3.52304 0.845305 0.415865 3.52304 0.86958 0.415865 3.52304 0.892578 0.415865 
3.52304 0.914159 0.415865 3.52304 0.934228 0.415865 3.52304 0.952737 0.415865 
3.52303 0.969676 0.415865 3.52303 0.98507 0.415865 3.52303 0.99897 0.415865 
3.52303 1.01145 0.415865 3.52303 1.0226 0.415865 3.52303 1.03251 0.415865 
3.52303 1.04128 0.415865 3.52303 1.04902 0.415865 3.52303 1.05583 0.415865 
3.52303 1.0618 0.415865 3.52303 1.06702 0.415865 3.52303 1.07158 0.415865 
3.52303 1.07555 0.415865 3.52303 1.079 0.415865 3.52303 1.082 0.415865 
3.55656 0.65829 0.415865 3.55656 0.684616 0.415865 3.55656 0.711541 0.415865 
3.55655 0.738772 0.415865 3.55655 0.766004 0.415865 3.55655 0.792929 0.415865 
3.55655 0.819254 0.415865 3.55654 0.844713 0.415865 3.55654 0.869074 0.415865 
3.55654 0.892151 0.415865 3.55654 0.913803 0.415865 3.55654 0.933935 0.415865 
3.55653 0.952499 0.415865 3.55653 0.969486 0.415865 3.55653 0.98492 0.415865 
3.55653 0.998854 0.415865 3.55653 1.01136 0.415865 3.55653 1.02253 0.415865 
3.55653 1.03246 0.415865 3.55653 1.04124 0.415865 3.55653 1.049 0.415865 
3.55652 1.05581 0.415865 3.55652 1.06179 0.415865 3.55652 1.06701 0.415865 
3.55652 1.07157 0.415865 3.55652 1.07554 0.415865 3.55652 1.079 0.415865 
3.55652 1.082 0.415865 3.59051 0.656985 0.415865 3.5905 0.683409 0.415865 
3.5905 0.710436 0.415865 3.5905 0.737773 0.415865 3.59049 0.765108 0.415865 
3.59049 0.792136 0.415865 3.59048 0.81856 0.415865 3.59048 0.844113 0.415865 
3.59048 0.868562 0.415865 3.59048 0.891719 0.415865 3.59047 0.913442 0.415865 
3.59047 0.933639 0.415865 3.59047 0.952259 0.415865 3.59046 0.969293 0.415865 
3.59046 0.984768 0.415865 3.59046 0.998736 0.415865 3.59046 1.01127 0.415865 
3.59046 1.02246 0.415865 3.59046 1.03241 0.415865 3.59045 1.04121 0.415865 
3.59045 1.04897 0.415865 3.59045 1.0558 0.415865 3.59045 1.06178 0.415865 
3.59045 1.06701 0.415865 3.59045 1.07157 0.415865 3.59045 1.07554 0.415865 
3.59045 1.079 0.415865 3.59045 1.082 0.415865 3.62487 0.655663 0.415865 
3.62487 0.682187 0.415865 3.62487 0.709318 0.415865 3.62486 0.73676 0.415865 
3.62486 0.764202 0.415865 3.62485 0.791334 0.415865 3.62485 0.817858 0.415865 
3.62484 0.843506 0.415865 3.62484 0.868043 0.415865 3.62483 0.891281 0.415865 
3.62483 0.913078 0.415865 3.62483 0.933338 0.415865 3.62482 0.952015 0.415865 
3.62482 0.969098 0.415865 3.62482 0.984614 0.415865 3.62481 0.998616 0.415865 
3.62481 1.01118 0.415865 3.62481 1.0224 0.415865 3.62481 1.03236 0.415865 
3.62481 1.04118 0.415865 3.6248 1.04895 0.415865 3.6248 1.05578 0.415865 
3.6248 1.06177 0.415865 3.6248 1.067 0.415865 3.6248 1.07157 0.415865 
3.6248 1.07554 0.415865 3.6248 1.079 0.415865 3.6248 1.082 0.415865 
3.65966 0.654325 0.415865 3.65965 0.680951 0.415865 3.65965 0.708187 0.415865 
3.65964 0.735736 0.415865 3.65963 0.763285 0.415865 3.65963 0.790521 0.415865 
3.65962 0.817147 0.415865 3.65962 0.842891 0.415865 3.65961 0.867518 0.415865 
3.65961 0.890838 0.415865 3.6596 0.912708 0.415865 3.6596 0.933035 0.415865 
3.65959 0.951768 0.415865 3.65959 0.968901 0.415865 3.65958 0.984458 0.415865 
3.65958 0.998496 0.415865 3.65958 1.01109 0.415865 3.65958 1.02233 0.415865 
3.65957 1.03231 0.415865 3.65957 1.04114 0.415865 3.65957 1.04893 0.415865 
3.65957 1.05577 0.415865 3.65957 1.06176 0.415865 3.65957 1.067 0.415865 
3.65957 1.07157 0.415865 3.65957 1.07554 0.415865 3.65956 1.079 0.415865 
3.65956 1.082 0.415865 3.69484 0.652972 0.415865 3.69483 0.6797 0.415865 
3.69483 0.707043 0.415865 3.69482 0.7347 0.415865 3.69481 0.762357 0.415865 
3.69481 0.7897 0.415865 3.6948 0.816428 0.415865 3.69479 0.842269 0.415865 
3.69479 0.866987 0.415865 3.69478 0.89039 0.415865 3.69477 0.912335 0.415865 
3.69477 0.932727 0.415865 3.69476 0.951519 0.415865 3.69476 0.968701 0.415865 
3.69475 0.984301 0.415865 3.69475 0.998373 0.415865 3.69475 1.011 0.415865 
3.69475 1.02226 0.415865 3.69474 1.03226 0.415865 3.69474 1.0411 0.415865 
3.69474 1.0489 0.415865 3.69474 1.05575 0.415865 3.69474 1.06175 0.415865 
3.69473 1.06699 0.415865 3.69473 1.07156 0.415865 3.69473 1.07554 0.415865 
3.69473 1.079 0.415865 3.69473 1.082 0.415865 3.73042 0.651603 0.415865 
3.73041 0.678435 0.415865 3.7304 0.705886 0.415865 3.73039 0.733652 0.415865 
3.73038 0.761419 0.415865 3.73038 0.78887 0.415865 3.73037 0.815702 0.415865 
3.73036 0.841641 0.415865 3.73035 0.86645 0.415865 3.73034 0.889936 0.415865 
3.73034 0.911957 0.415865 3.73033 0.932417 0.415865 3.73033 0.951267 0.415865 
3.73032 0.968499 0.415865 3.73032 0.984141 0.415865 3.73031 0.99825 0.415865 
3.73031 1.0109 0.415865 3.7303 1.02219 0.415865 3.7303 1.03221 0.415865 
3.7303 1.04107 0.415865 3.7303 1.04888 0.415865 3.73029 1.05573 0.415865 
3.73029 1.06174 0.415865 3.73029 1.06699 0.415865 3.73029 1.07156 0.415865 
3.73029 1.07554 0.415865 3.73029 1.079 0.415865 3.73029 1.082 0.415865 
3.76637 0.65022 0.415865 3.76636 0.677157 0.415865 3.76635 0.704717 0.415865 
3.76634 0.732594 0.415865 3.76633 0.760471 0.415865 3.76632 0.78803 0.415865 
3.76631 0.814967 0.415865 3.7663 0.841005 0.415865 3.76629 0.865907 0.415865 
3.76629 0.889478 0.415865 3.76628 0.911575 0.415865 3.76627 0.932103 0.415865 
3.76627 0.951011 0.415865 3.76626 0.968295 0.415865 3.76626 0.983981 0.415865 
3.76625 0.998125 0.415865 3.76625 1.01081 0.415865 3.76624 1.02212 0.415865 
3.76624 1.03216 0.415865 3.76624 1.04103 0.415865 3.76623 1.04885 0.415865 
3.76623 1.05572 0.415865 3.76623 1.06173 0.415865 3.76623 1.06698 0.415865 
3.76623 1.07156 0.415865 3.76622 1.07554 0.415865 3.76622 1.079 0.415865 
3.76622 1.082 0.415865 3.36229 0.665763 0.401362 3.3623 0.691522 0.401362 
3.3623 0.717859 0.401362 3.36231 0.744493 0.401362 3.36231 0.771126 0.401362 
3.36231 0.797464 0.401362 3.36232 0.823223 0.401362 3.36232 0.848145 0.401362 
3.36233 0.872007 0.401362 3.36233 0.894626 0.401362 3.36233 0.915866 0.401362 
3.36234 0.935632 0.401362 3.36234 0.953877 0.401362 3.36234 0.970588 0.401362 
3.36234 0.985789 0.401362 3.36235 0.999528 0.401362 3.36235 1.01188 0.401362 
3.36235 1.02291 0.401362 3.36235 1.03274 0.401362 3.36235 1.04144 0.401362 
[...]
POINT_DATA 10920
FIELD FieldData 5
pressure 1 10920 float
0.286945 0.28465 0.28221 0.280129 0.277788 0.276692 0.274342 0.273778 0.273508 
0.274329 0.27501 0.275526 0.274627 0.272447 0.266773 0.259928 0.250212 0.242122 
0.231501 0.223321 0.213747 0.20743 0.200414 0.19671 0.192241 0.190749 0.188614 
0.187916 0.278641 0.276738 0.274701 0.273409 0.273544 0.273024 0.271807 0.270592 
0.268663 0.267037 0.263473 0.260066 0.254538 0.249722 0.243862 0.237644 0.229776 
0.221294 0.213132 0.205898 0.19987 0.195021 0.19128 0.188492 0.186575 0.185249 
0.184611 0.184271 0.272249 0.270637 0.269048 0.267575 0.266877 0.266518 0.265499 
0.263958 0.26157 0.259085 0.256273 0.253975 0.251176 0.248257 0.244469 0.240173 
0.234956 0.229521 0.22364 0.218299 0.213231 0.209168 0.205607 0.203109 0.201039 
0.199801 0.199001 0.198656 0.265983 0.264657 0.262873 0.260996 0.259045 0.258439 
0.258279 0.257473 0.256543 0.254885 0.253608 0.251915 0.250691 0.248972 0.247038 
0.244491 0.241721 0.23854 0.23537 0.232022 0.229184 0.226275 0.224082 0.221783 
0.220372 0.218671 0.218102 0.217959 0.259496 0.258292 0.25646 0.254819 0.252027 
0.250674 0.251068 0.251475 0.251473 0.251378 0.251344 0.251127 0.250601 0.250111 
0.249488 0.248986 0.248161 0.24763 0.246717 0.246203 0.245045 0.244293 0.242739 
0.241785 0.240078 0.239371 0.238603 0.238211 0.252874 0.251877 0.250037 0.248971 
0.246198 0.243661 0.243442 0.244676 0.245797 0.246936 0.248428 0.249451 0.250333 
0.250915 0.251939 0.252988 0.254669 0.256228 0.258116 0.259112 0.260243 0.260064 
0.260099 0.258982 0.25838 0.257357 0.256432 0.256802 0.246508 0.2455 0.243573 
0.242506 0.240365 0.237725 0.235344 0.236301 0.238796 0.24096 0.243298 0.246294 
0.24871 0.251241 0.253784 0.257207 0.260844 0.2649 0.268045 0.270871 0.272224 
0.273553 0.27353 0.273625 0.272652 0.272502 0.272377 0.272042 0.240346 0.239336 
0.236877 0.235815 0.233904 0.231798 0.229006 0.227311 0.230124 0.233832 0.237189 
0.240845 0.245611 0.250134 0.255569 0.261115 0.267059 0.272232 0.276609 0.27975 
0.282175 0.283439 0.284452 0.28426 0.28443 0.284065 0.283584 0.284949 0.234307 
0.233402 0.23072 0.229049 0.227575 0.22585 0.223469 0.221461 0.221123 0.225889 
0.231196 0.236086 0.241481 0.248754 0.256481 0.264689 0.272103 0.278405 0.283541 
0.287126 0.289968 0.292018 0.293007 0.294208 0.294006 0.294951 0.295579 0.295966 
0.228008 0.227364 0.224825 0.223215 0.221644 0.221444 0.22004 0.217379 0.216751 
0.21893 0.225359 0.232424 0.239514 0.247046 0.256684 0.266491 0.27538 0.283376 
0.288864 0.293747 0.297079 0.2995 0.301662 0.302479 0.303861 0.304212 0.304649 
0.306727 0.221897 0.221453 0.219226 0.218122 0.217283 0.217111 0.216494 0.215721 
0.21483 0.215831 0.220064 0.228883 0.238279 0.247468 0.256936 0.267088 0.277197 
0.285785 0.293788 0.299363 0.304073 0.307752 0.310127 0.312605 0.313624 0.315022 
0.316369 0.317209 0.215804 0.215387 0.213628 0.213213 0.212823 0.212958 0.212878 
0.214535 0.214977 0.21501 0.218386 0.22566 0.236666 0.247232 0.258066 0.268373 
0.278779 0.288527 0.296777 0.303757 0.309525 0.313716 0.31746 0.319466 0.32165 
0.32256 0.323274 0.325935 0.210329 0.209772 0.20843 0.208843 0.208826 0.208994 
0.210197 0.212935 0.214991 0.216785 0.220503 0.225487 0.233965 0.246026 0.258 
0.270305 0.282162 0.293169 0.301803 0.310196 0.315883 0.321677 0.324816 0.328339 
0.330006 0.331724 0.333202 0.334767 0.286737 0.284716 0.282177 0.280038 0.278444 
0.276165 0.274437 0.272386 0.272214 0.271777 0.27262 0.272697 0.273142 0.271025 
0.267586 0.26026 0.253194 0.24342 0.235186 0.224992 0.217361 0.208974 0.203735 
0.197962 0.195299 0.191781 0.19083 0.189509 0.278198 0.27691 0.274933 0.273741 
0.273621 0.272097 0.270368 0.267545 0.265553 0.262379 0.26045 0.256354 0.253427 
0.249078 0.245538 0.240053 0.233384 0.2254 0.217487 0.210285 0.204198 0.199232 
0.195386 0.192551 0.190555 0.189276 0.188596 0.188282 0.271948 0.270675 0.269006 
0.2678 0.267023 0.265604 0.263951 0.260957 0.257996 0.254627 0.25188 0.249502 
0.247819 0.24623 0.244353 0.241534 0.237755 0.233027 0.227941 0.222915 0.218299 
0.214328 0.211105 0.208577 0.206825 0.205425 0.204916 0.204717 0.265899 0.264359 
0.262542 0.261046 0.259017 0.257689 0.256718 0.254926 0.253063 0.250854 0.248891 
0.247267 0.246228 0.245373 0.244581 0.243551 0.242303 0.240475 0.238593 0.236417 
0.234521 0.232608 0.231018 0.229594 0.228356 0.227483 0.227021 0.226738 0.259458 
0.25805 0.25602 0.254678 0.25192 0.250173 0.249731 0.249002 0.248015 0.247246 
0.246785 0.246265 0.245627 0.245435 0.245522 0.246107 0.246745 0.247776 0.248427 
0.249501 0.249841 0.250333 0.250141 0.249749 0.249324 0.248725 0.24813 0.248872 
0.252989 0.251883 0.249784 0.248629 0.245952 0.243367 0.243088 0.243242 0.243171 
0.243343 0.244106 0.244785 0.245292 0.245861 0.24709 0.24893 0.251779 0.254613 
0.258229 0.260797 0.263617 0.265079 0.266454 0.266956 0.266745 0.267057 0.267273 
0.266893 0.246545 0.245673 0.243496 0.242426 0.240026 0.237453 0.235433 0.236293 
0.237927 0.239095 0.240494 0.242494 0.244522 0.24674 0.249269 0.253127 0.257431 
0.262735 0.266916 0.271635 0.274356 0.277253 0.278438 0.279284 0.279484 0.279392 
0.278354 0.279602 0.240508 0.23954 0.23709 0.235636 0.233807 0.231617 0.228995 
0.227939 0.231263 0.234026 0.236531 0.239247 0.242951 0.247221 0.252327 0.257999 
0.26463 0.270105 0.276085 0.279528 0.28368 0.285607 0.287538 0.288491 0.288261 
0.289217 0.289492 0.289391 0.234286 0.233407 0.230821 0.228884 0.227094 0.225818 
0.223565 0.221993 0.222349 0.227499 0.231846 0.236201 0.240727 0.247156 0.254932 
0.26342 0.270761 0.277963 0.282328 0.287179 0.289526 0.292266 0.293799 0.294554 
0.295501 0.295965 0.29567 0.297775 0.228014 0.227314 0.224719 0.222711 0.22098 
0.220499 0.219304 0.217005 0.217051 0.220234 0.227061 0.233068 0.240196 0.247594 
0.256864 0.266531 0.276216 0.282785 0.288838 0.29178 0.295485 0.297334 0.29937 
0.300719 0.301684 0.302537 0.303935 0.304405 0.221721 0.22131 0.219158 0.217605 
0.216329 0.215892 0.215108 0.214931 0.214917 0.21673 0.221611 0.230788 0.239615 
0.249037 0.258665 0.268854 0.278066 0.286623 0.29158 0.297063 0.299557 0.303196 
0.304699 0.306967 0.307832 0.309274 0.309432 0.312264 0.215713 0.215371 0.21356 
0.213007 0.212037 0.211698 0.211465 0.2131 0.214485 0.215274 0.219428 0.227999 
0.239168 0.250547 0.261415 0.271538 0.280748 0.288044 0.294906 0.29917 0.304178 
0.306822 0.310135 0.311644 0.313788 0.314371 0.31617 0.317297 0.210152 0.209987 
0.208461 0.208641 0.20824 0.208087 0.209365 0.212482 0.215332 0.218834 0.223561 
0.229467 0.239109 0.250573 0.262648 0.273434 0.283383 0.291443 0.298007 0.303853 
0.307995 0.311953 0.314388 0.316983 0.318304 0.319847 0.320198 0.323404 0.286983 
0.284818 0.282564 0.28047 0.278792 0.276318 0.273218 0.270812 0.268623 0.268912 
0.268698 0.270142 0.270248 0.270391 0.266898 0.262186 0.254114 0.246937 0.237154 
0.228921 0.219498 0.212804 0.205635 0.201594 0.196959 0.195321 0.193126 0.192378 
0.278219 0.276702 0.27465 0.273167 0.272807 0.271872 0.269707 0.267724 0.264969 
0.263499 0.260407 0.25852 0.255082 0.252491 0.24893 0.244637 0.238268 0.230539 
0.222634 0.215373 0.209093 0.203976 0.199942 0.196928 0.194835 0.193351 0.192645 
0.192243 0.271725 0.270355 0.268714 0.267475 0.266673 0.265785 0.263852 0.261536 
0.258323 0.255513 0.252511 0.25086 0.249502 0.248578 0.247306 0.245316 0.242078 
0.238058 0.233298 0.228626 0.224098 0.220292 0.216942 0.2145 0.212467 0.211226 
0.210468 0.210226 0.265767 0.264075 0.262403 0.260978 0.259112 0.257629 0.256267 
0.254461 0.251938 0.249253 0.247062 0.245794 0.24533 0.244893 0.244855 0.244343 
0.244036 0.243031 0.242142 0.240756 0.239655 0.238229 0.237208 0.235827 0.235134 
0.233893 0.233765 0.23405 0.25949 0.257742 0.255723 0.254402 0.252014 0.250327 
0.249129 0.247931 0.246427 0.245133 0.244044 0.243375 0.24275 0.242954 0.243433 
0.244843 0.2463 0.248524 0.250466 0.252702 0.254272 0.255775 0.256309 0.25706 
0.256452 0.256925 0.256851 0.257182 0.252914 0.251579 0.249452 0.248194 0.245779 
0.243567 0.242915 0.242447 0.241927 0.241599 0.24192 0.241918 0.242164 0.24255 
0.244549 0.246994 0.251144 0.255219 0.259795 0.263778 0.267336 0.269749 0.271888 
0.272374 0.273254 0.273039 0.272765 0.273564 0.246665 0.245636 0.243344 0.242036 
0.239945 0.237813 0.2362 0.236624 0.237368 0.238074 0.238963 0.240472 0.242024 
0.244447 0.247238 0.252471 0.257584 0.263753 0.269221 0.274122 0.278008 0.281213 
0.283103 0.284786 0.284563 0.285901 0.286013 0.286224 0.240536 0.239685 0.237249 
0.235699 0.233962 0.232051 0.229832 0.22929 0.231835 0.233841 0.235604 0.23807 
0.241854 0.246079 0.252439 0.258538 0.266303 0.272499 0.278228 0.282877 0.286539 
0.288957 0.291137 0.291429 0.292481 0.292163 0.291943 0.293492 0.234476 0.23376 
0.231224 0.229384 0.22754 0.226082 0.224184 0.22311 0.224244 0.228276 0.232003 
0.235724 0.240657 0.24806 0.256081 0.266208 0.273701 0.280894 0.285865 0.289864 
0.292624 0.295162 0.296097 0.297851 0.297389 0.298998 0.299687 0.300309 0.228026 
0.227456 0.225221 0.223241 0.221342 0.220613 0.21956 0.217904 0.217711 0.221752 
0.22792 0.234099 0.240855 0.248927 0.259978 0.269624 0.280281 0.286574 0.2918 
0.294967 0.29769 0.299234 0.301217 0.301737 0.303146 0.303902 0.304343 0.306677 
0.221883 0.221297 0.219221 0.217807 0.216405 0.215807 0.215186 0.214717 0.215328 
0.21737 0.22343 0.232292 0.241701 0.251944 0.261554 0.273402 0.281638 0.289974 
0.294647 0.298537 0.301422 0.303855 0.305653 0.307392 0.308651 0.309564 0.311024 
0.312267 0.215524 0.214932 0.213262 0.212672 0.211828 0.211427 0.21085 0.212506 
0.213959 0.215724 0.220529 0.230401 0.242315 0.253687 0.265498 0.27447 0.28433 
0.290508 0.296048 0.300439 0.303816 0.306977 0.309197 0.311209 0.312566 0.313735 
0.314526 0.317142 0.210129 0.209769 0.208181 0.208383 0.20797 0.207946 0.209038 
0.212301 0.215547 0.21946 0.225058 0.231834 0.241811 0.254433 0.265348 0.27703 
0.285303 0.292646 0.29817 0.302338 0.306449 0.309114 0.311937 0.313581 0.315473 
0.316356 0.317874 0.319576 0.287186 0.28508 0.282747 0.28138 0.27961 0.277213 
0.273126 0.269071 0.266754 0.265426 0.266122 0.26712 0.268919 0.269086 0.26767 
0.262478 0.256773 0.248415 0.240695 0.231003 0.22329 0.214826 0.209305 0.203298 
0.200429 0.196732 0.195684 0.194359 0.278064 0.276794 0.274251 0.27249 0.271934 
0.270745 0.26861 0.265601 0.263396 0.260706 0.259513 0.256873 0.255537 0.252883 
0.250803 0.24702 0.24146 0.234192 0.226477 0.219207 0.212877 0.207621 0.203498 
0.200409 0.198209 0.196739 0.195947 0.195555 0.271218 0.270072 0.268253 0.266861 
0.265745 0.264957 0.263451 0.261071 0.258249 0.255252 0.252947 0.25141 0.2508 
0.250383 0.24986 0.248445 0.246066 0.242375 0.238165 0.233572 0.229343 0.225408 
0.222278 0.219557 0.217769 0.21612 0.215629 0.215422 0.265464 0.263816 0.262144 
0.260887 0.258932 0.257617 0.256391 0.254718 0.251959 0.249254 0.246953 0.245891 
0.245506 0.245878 0.24602 0.246537 0.246575 0.246647 0.246167 0.245782 0.245018 
0.244461 0.24351 0.242922 0.241881 0.241436 0.241076 0.241172 0.259358 0.257515 
0.255379 0.254239 0.251986 0.250001 0.248653 0.247122 0.245407 0.243664 0.242535 
0.24161 0.241532 0.241567 0.24304 0.244537 0.247319 0.250045 0.253419 0.256389 
0.259185 0.261076 0.262674 0.263001 0.263731 0.263558 0.263608 0.264654 0.252937 
0.251394 0.24906 0.247853 0.245556 0.243376 0.241871 0.240922 0.239858 0.239513 
0.23931 0.239426 0.239216 0.240503 0.242198 0.24634 0.250591 0.25632 0.26175 
0.266992 0.271321 0.274995 0.277333 0.279465 0.279794 0.281054 0.281713 0.282126 
0.246565 0.24555 0.243165 0.241655 0.239653 0.2377 0.236306 0.235755 0.235875 
0.235942 0.236686 0.237601 0.239295 0.24123 0.245727 0.250807 0.258151 0.264754 
0.27127 0.276896 0.281561 0.285102 0.287825 0.289071 0.290147 0.290071 0.289654 
0.290978 0.240698 0.24001 0.237247 0.235555 0.233982 0.232403 0.230382 0.230018 
0.231461 0.232729 0.23389 0.236083 0.239436 0.244912 0.250775 0.259553 0.26696 
0.274628 0.280742 0.285552 0.289516 0.292441 0.294311 0.295858 0.295784 0.297124 
0.297485 0.29798 0.234614 0.234144 0.231543 0.229655 0.227966 0.226541 0.224953 
0.224279 0.225503 0.228653 0.231242 0.234759 0.240299 0.2474 0.258206 0.267067 
0.277009 0.283616 0.288741 0.292693 0.295418 0.297341 0.299085 0.299549 0.300635 
0.300984 0.301031 0.303114 0.228263 0.227874 0.225714 0.223858 0.221833 0.220791 
0.219986 0.218942 0.219355 0.223074 0.228847 0.234467 0.241387 0.251149 0.261251 
0.274544 0.283147 0.290649 0.295003 0.297755 0.299971 0.301712 0.302712 0.304122 
0.304429 0.305663 0.3069 0.307796 0.221843 0.221413 0.219653 0.218311 0.216646 
0.215902 0.215201 0.215166 0.215791 0.219031 0.2253 0.234297 0.243915 0.253859 
0.266495 0.275957 0.287063 0.293184 0.297853 0.301117 0.303227 0.305239 0.306839 
0.308098 0.309219 0.31035 0.310828 0.313497 0.215556 0.214899 0.213132 0.212728 
0.21183 0.211287 0.210851 0.21204 0.213999 0.216614 0.22256 0.233391 0.245263 
0.257891 0.268089 0.279966 0.287321 0.294344 0.298597 0.301836 0.305208 0.307323 
0.309693 0.311085 0.312756 0.313483 0.315065 0.316464 0.209801 0.209444 0.208001 
0.208007 0.207844 0.207783 0.208802 0.211866 0.215545 0.220481 0.226896 0.234309 
0.245946 0.25751 0.270415 0.279868 0.289013 0.294739 0.299209 0.303097 0.305626 
0.308718 0.31032 0.312482 0.313514 0.314876 0.315527 0.318136 0.287342 0.285357 
0.283208 0.281788 0.280788 0.277799 0.273231 0.267958 0.264523 0.262975 0.263431 
0.265323 0.267383 0.269057 0.267924 0.264507 0.258006 0.251591 0.242713 0.234792 
0.225546 0.218772 0.211456 0.207256 0.202459 0.200738 0.198494 0.197726 0.27849 
0.277184 0.274543 0.27225 0.271423 0.269962 0.267006 0.263548 0.260352 0.258395 
0.256493 0.255606 0.254006 0.252927 0.251268 0.248726 0.243953 0.237215 0.229768 
0.222605 0.216239 0.210931 0.206717 0.203524 0.201311 0.199704 0.198952 0.198538 
0.27105 0.26979 0.267999 0.266069 0.264716 0.263849 0.262345 0.260032 0.257031 
0.254219 0.25203 0.250969 0.250723 0.250962 0.251026 0.250526 0.248682 0.245851 
0.241924 0.237877 0.233706 0.230163 0.226897 0.224515 0.222442 0.221156 0.220386 
0.220141 0.265114 0.263399 0.26179 0.260395 0.258513 0.257298 0.256412 0.254882 
0.252233 0.249243 0.247109 0.246013 0.246253 0.246653 0.247818 0.248513 0.24956 
0.249892 0.250311 0.250168 0.250169 0.249671 0.249382 0.248522 0.248203 0.24722 
0.247205 0.247813 0.259299 0.257231 0.255144 0.254097 0.252037 0.250237 0.248894 
0.247552 0.245647 0.243865 0.242306 0.2417 0.241314 0.242205 0.243261 0.245927 
0.248707 0.252741 0.256633 0.260798 0.264194 0.267186 0.269019 0.270687 0.270774 
0.271708 0.272149 0.272677 0.252892 0.251106 0.2488 0.247715 0.245659 0.24318 
0.241362 0.23997 0.239038 0.238234 0.23816 0.237793 0.238213 0.238623 0.241812 
0.245538 0.251512 0.257679 0.264437 0.270548 0.275924 0.279993 0.283321 0.285023 
0.286456 0.286828 0.286753 0.288016 0.246617 0.245426 0.242907 0.24144 0.239443 
0.23754 0.23549 0.234608 0.23402 0.234087 0.234363 0.235429 0.236422 0.239562 
0.243354 0.250704 0.257871 0.266185 0.273469 0.279881 0.285125 0.28936 0.292383 
0.294644 0.295343 0.296771 0.297415 0.297895 0.240666 0.240088 0.237228 0.235301 
0.233777 0.232502 0.23063 0.229626 0.230269 0.230877 0.231766 0.233442 0.237232 
0.242096 0.250445 0.258426 0.268439 0.276085 0.282706 0.288217 0.292241 0.295363 
0.29766 0.298756 0.299774 0.299785 0.299506 0.301245 0.234825 0.234555 0.231696 
0.229711 0.228174 0.227028 0.225617 0.224971 0.226157 0.228063 0.230071 0.23314 
0.238516 0.247581 0.256958 0.269475 0.278061 0.28593 0.291265 0.294754 0.297787 
0.299779 0.301211 0.302525 0.30245 0.303829 0.304535 0.305073 0.228412 0.228158 
0.226243 0.224377 0.222294 0.221145 0.220698 0.22034 0.22069 0.22418 0.228904 
0.234598 0.241983 0.251156 0.264701 0.275158 0.286882 0.293167 0.297311 0.300233 
0.301853 0.303354 0.304593 0.305088 0.306085 0.306863 0.306905 0.309305 0.222085 
0.221804 0.220211 0.219028 0.217112 0.216052 0.215804 0.216061 0.217009 0.220219 
0.227192 0.236075 0.245694 0.257163 0.267729 0.281072 0.28904 0.296545 0.300488 
0.302756 0.305124 0.306435 0.307892 0.308991 0.309982 0.310703 0.312041 0.313013 
0.215508 0.214901 0.213562 0.213124 0.212139 0.211495 0.211105 0.212221 0.214368 
0.218151 0.224858 0.236197 0.249068 0.260609 0.273234 0.281925 0.291726 0.296677 
0.300595 0.303984 0.30593 0.308493 0.309804 0.311526 0.312321 0.313408 0.313762 
0.316249 0.209741 0.209357 0.207857 0.20805 0.207755 0.207907 0.208537 0.211302 
0.215894 0.221761 0.229017 0.237759 0.249221 0.262494 0.27304 0.284533 0.291486 
0.297221 0.300985 0.303594 0.306577 0.30815 0.310388 0.311323 0.312947 0.313413 
0.314715 0.315951 0.287419 0.285471 0.283369 0.282501 0.281441 0.27848 0.272684 
0.267253 0.262612 0.2612 0.26138 0.263903 0.266775 0.268753 0.269017 0.265525 
0.260704 0.25338 0.246315 0.237127 0.229601 0.221175 0.215571 0.209436 0.206449 
0.202654 0.20154 0.200298 0.279066 0.277806 0.274845 0.272641 0.271387 0.26962 
0.265928 0.261626 0.258336 0.255861 0.25498 0.25371 0.253552 0.252621 0.251907 
0.249962 0.245964 0.239812 0.2327 0.225676 0.219384 0.214073 0.209833 0.206647 
0.204338 0.202797 0.201971 0.201595 0.271244 0.269844 0.267398 0.26519 0.263683 
0.262637 0.261006 0.258125 0.254922 0.251899 0.250055 0.249258 0.249688 0.250448 
0.251309 0.251449 0.250577 0.248173 0.245015 0.241146 0.237483 0.233887 0.231049 
0.228454 0.226807 0.225149 0.224737 0.224597 0.264853 0.263107 0.261201 0.259592 
0.257519 0.256469 0.255811 0.254251 0.251352 0.248408 0.246181 0.24549 0.24576 
0.247142 0.248305 0.250178 0.251401 0.252766 0.253447 0.254243 0.254471 0.254837 
0.254571 0.254561 0.253864 0.253665 0.253489 0.253714 0.259093 0.257162 0.255002 
0.253899 0.251833 0.250103 0.249183 0.247973 0.246116 0.243938 0.24253 0.241602 
0.241926 0.242495 0.244651 0.247022 0.250994 0.255122 0.260091 0.264628 0.26894 
0.272133 0.274811 0.275913 0.277231 0.277471 0.2777 0.279192 0.253041 0.251106 
0.24871 0.247813 0.245826 0.243579 0.241676 0.240638 0.23946 0.238722 0.238078 
0.238004 0.237894 0.239454 0.241525 0.24682 0.252659 0.260099 0.267493 0.274587 
0.280581 0.285629 0.289111 0.292082 0.293086 0.294732 0.295889 0.29644 0.246619 
0.24519 0.242716 0.24143 0.239468 0.237151 0.235067 0.233662 0.233427 0.233198 
0.233642 0.234114 0.235737 0.237749 0.243641 0.250004 0.259299 0.267918 0.276287 
0.283442 0.28934 0.293913 0.297374 0.299351 0.300783 0.30094 0.300628 0.302214 
0.240664 0.23996 0.236931 0.235021 0.233449 0.232189 0.229989 0.228561 0.228497 
0.228941 0.229773 0.231558 0.234584 0.241183 0.248399 0.259635 0.268741 0.278054 
0.285179 0.290775 0.295288 0.298656 0.301091 0.302926 0.303238 0.304694 0.305169 
0.305684 0.234765 0.234573 0.231582 0.229339 0.227946 0.22711 0.225628 0.224533 
0.225059 0.226447 0.227725 0.230799 0.236886 0.245245 0.25834 0.268635 0.280398 
0.287643 0.293061 0.297076 0.299706 0.301848 0.303421 0.30404 0.305061 0.305165 
0.305017 0.307003 0.228483 0.228445 0.226432 0.224406 0.2225 0.221397 0.221052 
0.220942 0.221409 0.223577 0.228064 0.233336 0.241012 0.252638 0.263779 0.278757 
0.287623 0.295382 0.299378 0.301632 0.303702 0.304885 0.305779 0.306864 0.30673 
0.307919 0.308742 0.309337 0.222167 0.221986 0.220808 0.219537 0.217541 0.216433 
0.216316 0.216882 0.218151 0.221466 0.227819 0.237165 0.247454 0.257983 0.271911 
0.281514 0.292864 0.297988 0.301939 0.304558 0.305843 0.307356 0.308355 0.309041 
0.309856 0.310648 0.310638 0.31291 0.215748 0.215346 0.214087 0.213892 0.212577 
0.211835 0.211778 0.212743 0.215488 0.220038 0.227484 0.238874 0.251453 0.264754 
0.27443 0.28659 0.292978 0.299188 0.302374 0.304596 0.307149 0.308479 0.310207 
0.311138 0.312216 0.312703 0.313764 0.314684 0.209741 0.209312 0.208187 0.208348 
0.208181 0.208087 0.208725 0.211245 0.216379 0.223476 0.23173 0.241015 0.253647 
0.265206 0.277955 0.286234 0.29443 0.298928 0.302138 0.304859 0.30648 0.308643 
0.309646 0.311091 0.311671 0.312424 0.312576 0.314415 0.287425 0.285473 0.283647 
0.282669 0.282019 0.278532 0.27248 0.265834 0.261646 0.259252 0.260225 0.262651 
0.266116 0.269091 0.2695 0.267474 0.26202 0.256465 0.248395 0.241059 0.232162 
0.225529 0.218242 0.213968 0.209112 0.207299 0.205083 0.204336 0.279578 0.27816 