# vtk DataFile Version 5.1
vtk output
ASCII
DATASET STRUCTURED_GRID
DIMENSIONS 30 50 23
POINTS 34500 float
0.869 0.123893 0.5 0.868271 0.126803 0.5 0.867388 0.130326 0.5 
0.866323 0.134576 0.5 0.865044 0.13968 0.5 0.863515 0.145777 0.5 
0.861701 0.153017 0.5 0.859563 0.161548 0.5 0.857065 0.171515 0.5 
0.854177 0.183039 0.5 0.850876 0.196209 0.5 0.847155 0.211058 0.5 
0.843022 0.227547 0.5 0.83851 0.245552 0.5 0.833672 0.264853 0.5 
0.828588 0.285142 0.5 0.823352 0.306032 0.5 0.818075 0.327087 0.5 
0.81287 0.347858 0.5 0.807842 0.367921 0.5 0.803084 0.386905 0.5 
0.798668 0.404526 0.5 0.794642 0.420588 0.5 0.791032 0.434992 0.5 
0.787842 0.44772 0.5 0.78506 0.458821 0.5 0.782661 0.468394 0.5 
0.780612 0.476569 0.5 0.778877 0.483491 0.5 0.777419 0.489311 0.5 
0.888115 0.129777 0.5 0.88738 0.132686 0.5 0.88649 0.136211 0.5 
0.885414 0.140469 0.5 0.88412 0.145591 0.5 0.882571 0.151719 0.5 
0.880728 0.159006 0.5 0.878552 0.167608 0.5 0.876005 0.177674 0.5 
0.873053 0.189333 0.5 0.869673 0.202679 0.5 0.865855 0.21775 0.5 
0.861608 0.23451 0.5 0.856963 0.252832 0.5 0.851979 0.272491 0.5 
0.846737 0.293165 0.5 0.84134 0.314452 0.5 0.835902 0.335899 0.5 
0.830543 0.357039 0.5 0.825375 0.377433 0.5 0.820493 0.396702 0.5 
0.815972 0.414557 0.5 0.811859 0.430802 0.5 0.80818 0.445343 0.5 
0.804936 0.458168 0.5 0.802113 0.469334 0.5 0.799683 0.478946 0.5 
0.797613 0.487141 0.5 0.795863 0.494069 0.5 0.794394 0.499886 0.5 
0.907267 0.135673 0.5 0.906533 0.138583 0.5 0.905643 0.142115 0.5 
0.904565 0.146387 0.5 0.903266 0.151533 0.5 0.901708 0.157699 0.5 
0.899852 0.165043 0.5 0.897656 0.173726 0.5 0.895079 0.183903 0.5 
0.892088 0.195712 0.5 0.888656 0.209251 0.5 0.884772 0.224564 0.5 
0.880444 0.241616 0.5 0.875705 0.26028 0.5 0.870613 0.280324 0.5 
0.865255 0.301412 0.5 0.859737 0.323128 0.5 0.854181 0.344998 0.5 
0.848711 0.366538 0.5 0.843443 0.387293 0.5 0.838476 0.406875 0.5 
0.833885 0.424987 0.5 0.829718 0.441437 0.5 0.825999 0.456133 0.5 
0.822727 0.46907 0.5 0.819887 0.480312 0.5 0.817448 0.489972 0.5 
0.815373 0.498194 0.5 0.813623 0.505134 0.5 0.812157 0.510952 0.5 
0.926441 0.141575 0.5 0.925714 0.144491 0.5 0.92483 0.148034 0.5 
0.923758 0.152325 0.5 0.922465 0.157501 0.5 0.920911 0.163712 0.5 
0.919055 0.171122 0.5 0.916856 0.179896 0.5 0.914271 0.190197 0.5 
0.911263 0.202169 0.5 0.907806 0.215917 0.5 0.903886 0.23149 0.5 
0.89951 0.248857 0.5 0.894712 0.267887 0.5 0.889552 0.288341 0.5 
0.884119 0.309873 0.5 0.878524 0.332047 0.5 0.872891 0.354371 0.5 
0.867351 0.376342 0.5 0.862023 0.397487 0.5 0.857008 0.417408 0.5 
0.852382 0.435802 0.5 0.848194 0.452477 0.5 0.844464 0.467345 0.5 
0.84119 0.480408 0.5 0.838355 0.491737 0.5 0.835926 0.501454 0.5 
0.833864 0.50971 0.5 0.832129 0.516667 0.5 0.830677 0.52249 0.5 
0.945622 0.14748 0.5 0.944907 0.150404 0.5 0.944037 0.153962 0.5 
0.942979 0.158277 0.5 0.9417 0.163489 0.5 0.940161 0.169753 0.5 
0.93832 0.177236 0.5 0.936134 0.186111 0.5 0.933559 0.196547 0.5 
0.930558 0.208695 0.5 0.9271 0.222669 0.5 0.923174 0.23852 0.5 
0.918783 0.256222 0.5 0.913962 0.275641 0.5 0.908773 0.296531 0.5 
0.903304 0.318534 0.5 0.897672 0.341195 0.5 0.892004 0.364003 0.5 
0.886435 0.386433 0.5 0.881086 0.407997 0.5 0.87606 0.428282 0.5 
0.871433 0.446981 0.5 0.867253 0.4639 0.5 0.86354 0.478957 0.5 
0.86029 0.492158 0.5 0.857481 0.503586 0.5 0.85508 0.513368 0.5 
0.853047 0.521664 0.5 0.85134 0.528643 0.5 0.849915 0.534474 0.5 
0.964797 0.153382 0.5 0.964099 0.156318 0.5 0.963247 0.159895 0.5 
0.96221 0.164238 0.5 0.960955 0.169491 0.5 0.959442 0.175813 0.5 
0.957628 0.183378 0.5 0.95547 0.192363 0.5 0.952924 0.202945 0.5 
0.949949 0.215283 0.5 0.946517 0.229495 0.5 0.942611 0.245643 0.5 
0.938238 0.263698 0.5 0.933428 0.283528 0.5 0.928245 0.304879 0.5 
0.92278 0.327378 0.5 0.917151 0.350554 0.5 0.911488 0.373874 0.5 
0.905928 0.396792 0.5 0.900595 0.418799 0.5 0.895593 0.439472 0.5 
0.890998 0.458498 0.5 0.886857 0.47568 0.5 0.883186 0.49094 0.5 
0.879982 0.504294 0.5 0.877219 0.515829 0.5 0.874864 0.525684 0.5 
0.872874 0.534026 0.5 0.871207 0.541031 0.5 0.869819 0.546874 0.5 
0.983949 0.159278 0.5 0.983272 0.162228 0.5 0.982444 0.165827 0.5 
0.981436 0.170202 0.5 0.980212 0.175501 0.5 0.978734 0.181888 0.5 
0.97696 0.18954 0.5 0.974844 0.198644 0.5 0.972343 0.209382 0.5 
0.969416 0.22192 0.5 0.966031 0.236386 0.5 0.962172 0.252845 0.5 
0.957844 0.271272 0.5 0.953079 0.291533 0.5 0.947937 0.313367 0.5 
0.942513 0.336387 0.5 0.936923 0.360104 0.5 0.931303 0.383961 0.5 
0.92579 0.407391 0.5 0.920508 0.429868 0.5 0.915563 0.450952 0.5 
0.911031 0.470322 0.5 0.906955 0.487785 0.5 0.903351 0.503263 0.5 
0.900213 0.516779 0.5 0.897516 0.528431 0.5 0.895221 0.538366 0.5 
0.893288 0.546759 0.5 0.891672 0.553794 0.5 0.89033 0.559652 0.5 
1.00306 0.165163 0.5 1.00241 0.168129 0.5 1.00161 0.171753 0.5 
1.00064 0.176164 0.5 0.999454 0.181513 0.5 0.99802 0.187969 0.5 
0.996295 0.195716 0.5 0.994234 0.204945 0.5 0.991793 0.215848 0.5 
0.988931 0.228598 0.5 0.985615 0.243329 0.5 0.981828 0.260113 0.5 
0.977573 0.278928 0.5 0.97288 0.299639 0.5 0.967813 0.321976 0.5 
0.962463 0.34554 0.5 0.956949 0.36982 0.5 0.951407 0.394238 0.5 
0.945974 0.418204 0.5 0.940777 0.441171 0.5 0.93592 0.462686 0.5 
0.931476 0.48242 0.5 0.927491 0.500178 0.5 0.923976 0.515885 0.5 
0.920924 0.529575 0.5 0.918307 0.541352 0.5 0.916087 0.551373 0.5 
0.914222 0.559821 0.5 0.912667 0.566889 0.5 0.911378 0.572764 0.5 
1.02213 0.171031 0.5 1.0215 0.174017 0.5 1.02074 0.177667 0.5 
1.0198 0.182117 0.5 1.01866 0.187521 0.5 1.01728 0.194051 0.5 
1.01561 0.201897 0.5 1.01362 0.211258 0.5 1.01125 0.222333 0.5 
1.00847 0.235303 0.5 1.00524 0.25031 0.5 1.00155 0.267432 0.5 
0.997389 0.28665 0.5 0.992797 0.307826 0.5 0.987833 0.330685 0.5 
0.982588 0.354811 0.5 0.977182 0.379675 0.5 0.97175 0.404675 0.5 
0.966429 0.429198 0.5 0.961346 0.452674 0.5 0.956603 0.474638 0.5 
0.952275 0.494751 0.5 0.948401 0.512816 0.5 0.944995 0.528765 0.5 
0.942044 0.542636 0.5 0.939522 0.554544 0.5 0.937389 0.564657 0.5 
0.935601 0.573165 0.5 0.934114 0.580269 0.5 0.932885 0.586163 0.5 
1.04113 0.176879 0.5 1.04053 0.179885 0.5 1.0398 0.183565 0.5 
1.03891 0.188056 0.5 1.03782 0.193516 0.5 1.03649 0.200124 0.5 
1.03489 0.208074 0.5 1.03298 0.217573 0.5 1.03069 0.228826 0.5 
1.02801 0.242024 0.5 1.02488 0.257316 0.5 1.0213 0.274786 0.5 
1.01726 0.294419 0.5 1.01279 0.316075 0.5 1.00795 0.339469 0.5 
1.00284 0.364175 0.5 0.997574 0.38964 0.5 0.99228 0.415241 0.5 
0.987098 0.440336 0.5 0.982155 0.464339 0.5 0.977551 0.486766 0.5 
0.973358 0.507271 0.5 0.969616 0.525655 0.5 0.966333 0.541854 0.5 
0.963499 0.555914 0.5 0.961082 0.567959 0.5 0.959045 0.578166 0.5 
0.957342 0.586737 0.5 0.95593 0.59388 0.5 0.954767 0.599794 0.5 
1.06005 0.182703 0.5 1.05948 0.18573 0.5 1.05879 0.189441 0.5 
1.05795 0.193975 0.5 1.05691 0.199494 0.5 1.05565 0.206182 0.5 
1.05412 0.214239 0.5 1.05228 0.22388 0.5 1.05009 0.235317 0.5 
1.04751 0.248748 0.5 1.0445 0.264333 0.5 1.04105 0.282159 0.5 
1.03714 0.302216 0.5 1.03282 0.324362 0.5 1.02814 0.348306 0.5 
1.02318 0.373603 0.5 1.01807 0.399684 0.5 1.01294 0.425899 0.5 
1.00792 0.451582 0.5 1.00314 0.476124 0.5 0.998694 0.499026 0.5 
0.994655 0.519934 0.5 0.991058 0.538645 0.5 0.987913 0.555101 0.5 
0.985205 0.569354 0.5 0.982903 0.581541 0.5 0.980969 0.591846 0.5 
0.979357 0.600482 0.5 0.978024 0.607664 0.5 0.976929 0.613601 0.5 
1.07887 0.188498 0.5 1.07834 0.191547 0.5 1.07769 0.195289 0.5 
1.07689 0.199867 0.5 1.07591 0.205447 0.5 1.07471 0.212217 0.5 
1.07326 0.220385 0.5 1.07151 0.230169 0.5 1.06943 0.241793 0.5 
1.06696 0.255463 0.5 1.06408 0.271344 0.5 1.06076 0.289533 0.5 
1.057 0.310021 0.5 1.05284 0.332666 0.5 1.04833 0.357168 0.5 
1.04355 0.383068 0.5 1.03862 0.409775 0.5 1.03367 0.436613 0.5 
1.02883 0.462895 0.5 1.02423 0.487986 0.5 1.01996 0.511372 0.5 
1.01609 0.532688 0.5 1.01265 0.551733 0.5 1.00965 0.568451 0.5 
1.00708 0.582902 0.5 1.0049 0.595232 0.5 1.00307 0.605638 0.5 
1.00155 0.61434 0.5 1.0003 0.621563 0.5 0.999275 0.627522 0.5 
1.09759 0.194259 0.5 1.09709 0.197331 0.5 1.09648 0.201105 0.5 
1.09573 0.205728 0.5 1.09481 0.211369 0.5 1.09368 0.218223 0.5 
1.09231 0.226501 0.5 1.09065 0.236432 0.5 1.08867 0.248245 0.5 
1.08632 0.262155 0.5 1.08357 0.278336 0.5 1.0804 0.296891 0.5 
1.07681 0.317815 0.5 1.07282 0.340964 0.5 1.06848 0.366029 0.5 
1.06389 0.392537 0.5 1.05916 0.419876 0.5 1.0544 0.447346 0.5 
1.04976 0.474232 0.5 1.04535 0.499878 0.5 1.04127 0.523753 0.5 
1.03758 0.545483 0.5 1.0343 0.564865 0.5 1.03146 0.581847 0.5 
1.02902 0.596498 0.5 1.02697 0.608974 0.5 1.02525 0.619481 0.5 
1.02383 0.62825 0.5 1.02266 0.635514 0.5 1.02171 0.641495 0.5 
1.11618 0.199983 0.5 1.11572 0.203078 0.5 1.11515 0.206884 0.5 
1.11445 0.211551 0.5 1.11359 0.217254 0.5 1.11253 0.224191 0.5 
1.11123 0.23258 0.5 1.10967 0.242657 0.5 1.1078 0.25466 0.5 
1.10557 0.268811 0.5 1.10296 0.285293 0.5 1.09994 0.304216 0.5 
1.09651 0.325577 0.5 1.0927 0.349231 0.5 1.08856 0.374862 0.5 
1.08416 0.401981 0.5 1.07963 0.429956 0.5 1.07509 0.45806 0.5 
1.07065 0.485552 0.5 1.06644 0.511755 0.5 1.06255 0.53612 0.5 
1.05904 0.558266 0.5 1.05593 0.577986 0.5 1.05325 0.595233 0.5 
1.05095 0.610084 0.5 1.04902 0.622705 0.5 1.04741 0.633313 0.5 
1.04609 0.642149 0.5 1.045 0.649454 0.5 1.04412 0.655457 0.5 
1.13464 0.205666 0.5 1.13422 0.208783 0.5 1.13369 0.21262 0.5 
1.13303 0.217332 0.5 1.13223 0.223095 0.5 1.13123 0.230114 0.5 
1.13002 0.238614 0.5 1.12855 0.248836 0.5 1.12678 0.261027 0.5 
1.12468 0.275419 0.5 1.1222 0.292201 0.5 1.11934 0.31149 0.5 
1.11608 0.333287 0.5 1.11245 0.357445 0.5 1.1085 0.38364 0.5 
1.10431 0.41137 0.5 1.09999 0.439978 0.5 1.09565 0.468714 0.5 
1.09142 0.496812 0.5 1.08742 0.52357 0.5 1.08372 0.548425 0.5 
1.08039 0.570984 0.5 1.07746 0.59104 0.5 1.07493 0.60855 0.5 
1.07277 0.6236 0.5 1.07096 0.636365 0.5 1.06946 0.647073 0.5 
1.06823 0.655974 0.5 1.06722 0.663319 0.5 1.06641 0.669344 0.5 
1.15296 0.211304 0.5 1.15256 0.214442 0.5 1.15207 0.21831 0.5 
[...]
POINT_DATA 34500
FIELD FieldData 5
pressure 1 34500 float
0.178573 0.367252 0.362899 0.359788 0.353587 0.346582 0.339485 0.333746 0.330253 
0.327918 0.326566 0.325769 0.325611 0.325697 0.325692 0.324781 0.322834 0.321372 
0.320514 0.316426 0.300614 0.276483 0.253887 0.247302 0.245982 0.245276 0.244361 
0.242384 0.237686 0.218216 0.178573 0.413139 0.410428 0.409065 0.404194 0.395801 
0.382324 0.364673 0.348652 0.336502 0.330095 0.327417 0.326507 0.326061 0.325411 
0.324332 0.323238 0.323311 0.322496 0.317378 0.305237 0.286423 0.259748 0.248303 
0.246142 0.245182 0.244221 0.242217 0.237422 0.217669 0.178573 0.422545 0.421048 
0.420338 0.418407 0.414391 0.408896 0.399795 0.384847 0.365867 0.347251 0.334371 
0.328937 0.326531 0.325243 0.324625 0.3245 0.324699 0.323 0.317162 0.310474 
0.295783 0.267128 0.250305 0.246545 0.24527 0.244212 0.242159 0.237246 0.217096 
0.178573 0.421215 0.418774 0.418304 0.416872 0.414766 0.41204 0.409035 0.403057 
0.392967 0.375994 0.35497 0.337496 0.328854 0.32619 0.325516 0.325549 0.324878 
0.322474 0.317838 0.314726 0.304001 0.276503 0.254143 0.247287 0.245484 0.244144 
0.241889 0.236917 0.216278 0.178573 0.426884 0.424972 0.424754 0.424169 0.42337 
0.421859 0.419781 0.415876 0.409358 0.399211 0.381557 0.358152 0.338394 0.329378 
0.32713 0.325997 0.324148 0.322036 0.320282 0.318083 0.309331 0.287067 0.260746 
0.24858 0.245667 0.243994 0.241605 0.236609 0.215582 0.178573 0.428537 0.426759 
0.426604 0.425942 0.424906 0.423037 0.420674 0.416796 0.412153 0.406079 0.397379 
0.380529 0.357469 0.338081 0.329293 0.32565 0.323757 0.323007 0.322687 0.32036 
0.310101 0.297561 0.270019 0.251208 0.246114 0.244014 0.241631 0.236306 0.214996 
0.178573 0.429111 0.427352 0.427187 0.426573 0.425691 0.424585 0.423476 0.421805 
0.419313 0.415412 0.409044 0.399195 0.381427 0.35537 0.335262 0.326994 0.324668 
0.324471 0.324021 0.31997 0.312676 0.306084 0.281613 0.256841 0.247233 0.24439 
0.241621 0.235982 0.214217 0.178573 0.430465 0.428959 0.428871 0.4285 0.427978 
0.427469 0.426188 0.424938 0.422538 0.419447 0.413059 0.407843 0.396857 0.374404 
0.348479 0.33208 0.326748 0.325391 0.323158 0.320263 0.317845 0.31141 0.290996 
0.26612 0.249722 0.245003 0.2414 0.235551 0.212982 0.178573 0.431899 0.430555 
0.430489 0.430205 0.429668 0.429023 0.42775 0.426307 0.424174 0.422205 0.418987 
0.415183 0.404582 0.391886 0.367479 0.343721 0.329523 0.32588 0.323417 0.322368 
0.321149 0.314159 0.299566 0.277714 0.254767 0.246087 0.241189 0.235423 0.211612 
0.178573 0.432077 0.430817 0.430748 0.430465 0.429984 0.429466 0.428732 0.428047 
0.426861 0.425368 0.422563 0.418723 0.410188 0.402978 0.386621 0.360911 0.33678 
0.327837 0.324848 0.324053 0.320401 0.315337 0.308657 0.2903 0.263086 0.248332 
0.241708 0.235106 0.210102 0.178573 0.43283 0.431613 0.43157 0.431371 0.431037 
0.430724 0.430301 0.429741 0.428451 0.426728 0.423417 0.419722 0.41468 0.409694 
0.395811 0.377355 0.350228 0.332908 0.32648 0.324097 0.320901 0.318941 0.314289 
0.299349 0.276178 0.253531 0.243414 0.235034 0.209074 0.178573 0.433956 0.432915 
0.432921 0.4328 0.43256 0.432168 0.431504 0.430432 0.428763 0.42669 0.424068 
0.421949 0.419531 0.415719 0.404936 0.393558 0.368549 0.343674 0.32918 0.325247 
0.32297 0.321007 0.314841 0.306594 0.29089 0.26396 0.247321 0.23528 0.209072 
0.178573 0.43516 0.434178 0.434165 0.433966 0.433604 0.433019 0.432191 0.430969 
0.429334 0.428014 0.426663 0.425769 0.423379 0.419087 0.41058 0.403104 0.383189 
0.358013 0.335711 0.327927 0.324305 0.320769 0.316278 0.31279 0.302281 0.279125 
0.254978 0.23736 0.209328 0.178573 0.435009 0.434049 0.434018 0.433779 0.43344 
0.432938 0.432402 0.431788 0.431073 0.43055 0.429491 0.427608 0.424671 0.420233 
0.415809 0.410812 0.393974 0.374979 0.348425 0.331609 0.325425 0.322089 0.319752 
0.317315 0.308115 0.295629 0.269464 0.244213 0.210065 0.178573 0.434728 0.433797 
0.433783 0.433614 0.433435 0.433258 0.433242 0.433137 0.432819 0.432182 0.430425 
0.428371 0.425464 0.423389 0.420855 0.416825 0.402097 0.389603 0.364132 0.339974 
0.328101 0.324335 0.321364 0.317252 0.311402 0.306317 0.287788 0.260173 0.213513 
0.178573 0.435249 0.434434 0.434478 0.43442 0.434371 0.434354 0.434366 0.434173 
0.43354 0.432413 0.430702 0.428946 0.427868 0.426973 0.42401 0.418088 0.408181 
0.399583 0.37745 0.353534 0.334478 0.326688 0.322354 0.319291 0.316506 0.311883 
0.298019 0.283164 0.223982 0.178573 0.436428 0.435672 0.435765 0.435741 0.43569 
0.435552 0.435239 0.434569 0.4336 0.432454 0.431308 0.430721 0.430369 0.428532 
0.42419 0.419781 0.415749 0.410371 0.388895 0.369334 0.345027 0.33057 0.324521 
0.321388 0.317999 0.313538 0.306687 0.299342 0.242625 0.178573 0.437321 0.436615 
0.436662 0.436587 0.436416 0.436121 0.43561 0.434848 0.433891 0.433225 0.432696 
0.432509 0.431803 0.428996 0.42564 0.423712 0.420961 0.413427 0.397765 0.384373 
0.358816 0.338451 0.328192 0.323818 0.320141 0.316985 0.312751 0.306544 0.262617 
0.178573 0.437184 0.436491 0.436479 0.436352 0.436136 0.435873 0.43549 0.435086 
0.434694 0.434598 0.434367 0.433844 0.432149 0.43008 0.427947 0.426458 0.422423 
0.415425 0.408905 0.397329 0.37421 0.350677 0.333706 0.326635 0.322358 0.319388 
0.315507 0.310608 0.281402 0.178573 0.4365 0.43582 0.435804 0.435681 0.435532 
0.435438 0.435421 0.435525 0.43569 0.435834 0.435535 0.434411 0.432799 0.431503 
0.430184 0.428166 0.423878 0.419528 0.415328 0.403124 0.39021 0.367492 0.34386 
0.330733 0.324401 0.320314 0.317123 0.313985 0.29579 0.178573 0.43609 0.43545 
0.435461 0.435414 0.435383 0.435505 0.435742 0.436105 0.436424 0.436513 0.435893 
0.434794 0.433675 0.432861 0.431785 0.429559 0.426112 0.423651 0.419333 0.409418 
0.40145 0.381707 0.359842 0.3393 0.327653 0.322378 0.319227 0.316688 0.306058 
0.178573 0.436549 0.435948 0.436035 0.43605 0.436112 0.43629 0.436515 0.43674 
0.436799 0.436511 0.435776 0.435065 0.434536 0.433977 0.432798 0.430896 0.428323 
0.426107 0.421835 0.416864 0.409692 0.391541 0.375637 0.352838 0.334898 0.326428 
0.321887 0.319157 0.313135 0.178573 0.437654 0.437102 0.437219 0.437278 0.437338 
0.437467 0.437466 0.437352 0.436957 0.436349 0.435655 0.435316 0.43523 0.434743 
0.433404 0.431918 0.429888 0.427742 0.424921 0.421279 0.414451 0.400904 0.389449 
0.369003 0.347719 0.333678 0.325633 0.322705 0.319325 0.178573 0.438939 0.438413 
0.438525 0.438546 0.438555 0.438523 0.438286 0.437848 0.43717 0.436414 0.435821 
0.43562 0.4358 0.43511 0.433793 0.432636 0.431054 0.429352 0.427279 0.423616 
0.417906 0.409619 0.400249 0.384448 0.365045 0.345879 0.33218 0.326451 0.325857 
0.178573 0.439784 0.439287 0.439346 0.439326 0.439243 0.439117 0.438734 0.438225 
0.437495 0.436843 0.436325 0.436086 0.436137 0.435273 0.434045 0.433307 0.432172 
0.430719 0.428608 0.425187 0.421061 0.414885 0.408038 0.397816 0.382522 0.363552 
0.344842 0.333438 0.33415 0.178573 0.440041 0.439549 0.439565 0.439492 0.439363 
0.439185 0.438845 0.438421 0.437923 0.437459 0.437046 0.436613 0.436419 0.43534 
0.434351 0.43397 0.433139 0.431635 0.429404 0.4264 0.423259 0.418584 0.414481 
0.407967 0.397246 0.38298 0.364646 0.346911 0.346978 0.178573 0.439807 0.439327 
0.439312 0.439225 0.439082 0.438949 0.438706 0.438525 0.438281 0.438089 0.437725 
0.437162 0.4366 0.435516 0.434708 0.434604 0.433801 0.432177 0.429959 0.427344 
0.424964 0.421775 0.418949 0.414531 0.407917 0.398883 0.384972 0.368927 0.364703 
0.178573 0.439389 0.438922 0.438912 0.43882 0.438719 0.438651 0.438559 0.438558 
0.438572 0.438499 0.43822 0.437535 0.43683 0.435786 0.435185 0.435067 0.434136 
0.432467 0.430428 0.428134 0.426326 0.424092 0.421607 0.418932 0.414731 0.408436 
0.399564 0.390845 0.387603 0.178573 0.439054 0.438605 0.438603 0.438541 0.438476 
0.43849 0.438486 0.438626 0.438714 0.438719 0.438401 0.437779 0.437025 0.436188 
0.435661 0.435385 0.434258 0.432661 0.430816 0.428783 0.427293 0.425766 0.424243 
0.422206 0.418494 0.414 0.408025 0.40251 0.406185 0.178573 0.438985 0.438555 
0.438574 0.43853 0.438513 0.438552 0.4386 0.438733 0.438811 0.438718 0.438378 
0.437828 0.437274 0.436614 0.436155 0.435546 0.434281 0.432825 0.431138 0.42934 
0.42831 0.427254 0.426486 0.424325 0.420576 0.416815 0.412468 0.407125 0.417307 
0.178573 0.439143 0.438726 0.438765 0.438746 0.438744 0.43881 0.438812 0.438909 
0.438841 0.438644 0.438227 0.43782 0.437468 0.437057 0.436509 0.435669 0.434311 
0.432992 0.431462 0.429967 0.429419 0.428442 0.427563 0.425413 0.422063 0.418214 
0.413907 0.410062 0.423776 0.178573 0.439489 0.439084 0.439136 0.439118 0.439128 
0.439153 0.439116 0.43908 0.438889 0.438525 0.438094 0.437745 0.437699 0.437379 
0.436804 0.435737 0.434405 0.433148 0.431832 0.430658 0.430325 0.42914 0.427778 
0.425828 0.422687 0.418927 0.415022 0.413476 0.429731 0.178573 0.439833 0.43944 
0.439487 0.439473 0.439464 0.439472 0.43934 0.439238 0.438893 0.43847 0.438005 
0.437744 0.437845 0.437633 0.436938 0.43584 0.434527 0.433351 0.4322 0.431294 
0.430885 0.429369 0.427601 0.425846 0.422503 0.419434 0.416484 0.416447 0.433908 
0.178573 0.440118 0.439732 0.439772 0.439738 0.43972 0.43967 0.439506 0.439299 
0.438919 0.438434 0.43803 0.437761 0.438013 0.437726 0.43703 0.43591 0.434685 
0.433517 0.432525 0.431767 0.431141 0.429319 0.427314 0.425457 0.422188 0.419972 
0.418184 0.418292 0.435956 0.178573 0.440201 0.439829 0.439852 0.439811 0.439766 
0.439708 0.439496 0.439307 0.438892 0.438482 0.438101 0.437881 0.438095 0.437758 
0.43701 0.436 0.434809 0.433694 0.432778 0.432096 0.431183 0.429026 0.426909 
0.424926 0.422058 0.420615 0.419111 0.418972 0.436932 0.178573 0.440168 0.439801 
0.439815 0.439748 0.439695 0.439595 0.439407 0.439209 0.43889 0.438523 0.438251 
0.437991 0.438196 0.437684 0.436974 0.436028 0.434926 0.433807 0.432978 0.432244 
0.431071 0.42858 0.426517 0.424457 0.422207 0.421046 0.419387 0.419162 0.438321 
0.178573 0.43999 0.439638 0.439639 0.439571 0.439502 0.439415 0.439217 0.439106 
0.438843 0.438618 0.43838 0.438142 0.438218 0.437611 0.436866 0.436044 0.434987 
0.433934 0.433109 0.432297 0.430814 0.428064 0.426113 0.424332 0.422424 0.421222 
0.419413 0.419467 0.439559 0.178573 0.439748 0.439398 0.439408 0.439326 0.439271 
0.439179 0.439045 0.438958 0.438829 0.438669 0.438525 0.438231 0.438249 0.437489 
0.436776 0.435995 0.435028 0.434021 0.433213 0.432217 0.430447 0.427544 0.425875 
0.424323 0.422625 0.421075 0.419574 0.419932 0.440456 0.178573 0.439494 0.439162 
0.439165 0.439096 0.439039 0.438978 0.438861 0.43887 0.43878 0.438733 0.438599 
0.438323 0.438203 0.437401 0.436649 0.435937 0.435028 0.434122 0.433248 0.432067 
0.429996 0.427109 0.425733 0.424452 0.422666 0.420933 0.419838 0.420496 0.441013 
0.178573 0.439284 0.438949 0.438971 0.438894 0.438865 0.438807 0.438752 0.438779 
0.438778 0.43873 0.43865 0.438324 0.438179 0.437286 0.436554 0.43584 0.435023 
0.43419 0.433244 0.431806 0.429539 0.426775 0.425759 0.424446 0.422639 0.42085 
0.420218 0.42104 0.441556 0.178573 0.439113 0.438788 0.438806 0.438754 0.438729 
0.438712 0.438661 0.438753 0.438747 0.438743 0.438614 0.43832 0.438091 0.437212 
0.436435 0.435755 0.434993 0.434243 0.433171 0.431472 0.429116 0.426552 0.425799 
0.424444 0.422516 0.420981 0.420562 0.421498 0.442086 0.178573 0.438993 0.438669 
0.438702 0.438641 0.43865 0.43863 0.438635 0.438709 0.438743 0.438697 0.43858 
0.438223 0.438029 0.43712 0.436358 0.435649 0.434967 0.434237 0.433055 0.431077 
0.428763 0.426421 0.425864 0.424318 0.422441 0.421144 0.420964 0.42194 0.442675 
0.178573 0.438929 0.438616 0.438646 0.438599 0.438598 0.43861 0.43859 0.438706 
0.438694 0.438659 0.438485 0.438159 0.43791 0.437058 0.436265 0.435571 0.434908 
0.434209 0.43287 0.430677 0.428461 0.426329 0.425852 0.424224 0.422338 0.421373 
0.421312 0.422342 0.443184 0.178573 0.438893 0.438577 0.438622 0.438569 0.438588 
0.438576 0.438594 0.438657 0.438663 0.438565 0.438401 0.438034 0.437841 0.436974 
0.436204 0.435483 0.434871 0.434103 0.432664 0.430283 0.428201 0.426276 0.425799 
0.424084 0.422353 0.421585 0.421717 0.422769 0.443677 0.178573 0.438853 0.438553 
0.438589 0.438556 0.438566 0.438575 0.438547 0.438638 0.438577 0.438487 0.438268 
0.437945 0.437736 0.436922 0.436132 0.435421 0.434793 0.433998 0.43241 0.429923 
0.42796 0.426229 0.42566 0.424003 0.422363 0.421856 0.422038 0.4231 0.444034 
0.178573 0.438821 0.438515 0.438565 0.438516 0.438547 0.438533 0.438532 0.438557 
0.438517 0.438367 0.43817 0.43781 0.437665 0.436861 0.436087 0.435354 0.434746 
0.433829 0.432134 0.429561 0.427769 0.426196 0.425521 0.423937 0.422523 0.422114 
0.4224 0.423456 0.444398 0.178573 0.438745 0.438456 0.438495 0.438472 0.43849 
0.438504 0.438466 0.438511 0.438403 0.438271 0.438029 0.437718 0.437558 0.436807 
0.436037 0.4353 0.434651 0.433668 0.431829 0.429256 0.427562 0.42614 0.425328 
0.423889 0.422605 0.422325 0.422588 0.423653 0.444612 0.178573 0.438602 0.438315 
0.438372 0.438336 0.43839 0.438387 0.438397 0.438406 0.438329 0.438148 0.437937 
0.437584 0.437454 0.436702 0.435967 0.435218 0.434561 0.433452 0.431517 0.428951 
0.427437 0.426097 0.4252 0.423952 0.422879 0.422589 0.42292 0.423976 0.444894 
0.178573 0.438368 0.438106 0.438157 0.438157 0.438205 0.438256 0.438249 0.438309 
0.438186 0.438025 0.437764 0.437447 0.437272 0.436565 0.435809 0.43506 0.434328 
0.433146 0.431123 0.428622 0.427211 0.426011 0.424995 0.423856 0.422873 0.422611 
0.422897 0.424008 0.444873 0.178573 0.438122 0.437858 0.437906 0.43787 0.437928 
0.43795 0.438024 0.438091 0.438042 0.437856 0.437636 0.43729 0.436958 0.436283 
0.435595 0.434798 0.434038 0.432719 0.430603 0.428227 0.426924 0.42586 0.424937 
0.424112 0.423301 0.423023 0.423478 0.424342 0.445259 0.367252 0.367252 0.362899 
0.359788 0.353587 0.346582 0.339485 0.333746 0.330253 0.327918 0.326566 0.325769 
0.325611 0.325697 0.325692 0.324781 0.322834 0.321372 0.320514 0.316426 0.300614 
0.276483 0.253887 0.247302 0.245982 0.245276 0.244361 0.242384 0.237686 0.218216 
0.413139 0.413139 0.410428 0.409065 0.404194 0.395801 0.382324 0.364673 0.348652 
0.336502 0.330095 0.327417 0.326507 0.326061 0.325411 0.324332 0.323238 0.323311 
0.322496 0.317378 0.305237 0.286423 0.259748 0.248303 0.246142 0.245182 0.244221 
0.242217 0.237422 0.217669 0.422545 0.422545 0.421048 0.420338 0.418407 0.414391 
0.408896 0.399795 0.384847 0.365867 0.347251 0.334371 0.328937 0.326531 0.325243 
0.324625 0.3245 0.324699 0.323 0.317162 0.310474 0.295783 0.267128 0.250305 
0.246545 0.24527 0.244212 0.242159 0.237246 0.217096 0.421215 0.421215 0.418774 
0.418304 0.416872 0.414766 0.41204 0.409035 0.403057 0.392967 0.375994 0.35497 
0.337496 0.328854 0.32619 0.325516 0.325549 0.324878 0.322474 0.317838 0.314726 
0.304001 0.276503 0.254143 0.247287 0.245484 0.244144 0.241889 0.236917 0.216278 
0.426884 0.426884 0.424972 0.424754 0.424169 0.42337 0.421859 0.419781 0.415876 
0.409358 0.399211 0.381557 0.358152 0.338394 0.329378 0.32713 0.325997 0.324148 
0.322036 0.320282 0.318083 0.309331 0.287067 0.260746 0.24858 0.245667 0.243994 
0.241605 0.236609 0.215582 0.428537 0.428537 0.426759 0.426604 0.425942 0.424906 
0.423037 0.420674 0.416796 0.412153 0.406079 0.397379 0.380529 0.357469 0.338081 
0.329293 0.32565 0.323757 0.323007 0.322687 0.32036 0.310101 0.297561 0.270019 
0.251208 0.246114 0.244014 0.241631 0.236306 0.214996 0.429111 0.429111 0.427352 
0.427187 0.426573 0.425691 0.424585 0.423476 0.421805 0.419313 0.415412 0.409044 
0.399195 0.381427 0.35537 0.335262 0.326994 0.324668 0.324471 0.324021 0.31997 
0.312676 0.306084 0.281613 0.256841 0.247233 0.24439 0.241621 0.235982 0.214217 
0.430465 0.430465 0.428959 0.428871 0.4285 0.427978 0.427469 0.426188 0.424938 
0.422538 0.419447 0.413059 0.407843 0.396857 0.374404 0.348479 0.33208 0.326748 
0.325391 0.323158 0.320263 0.317845 0.31141 0.290996 0.26612 0.249722 0.245003 
0.2414 0.235551 0.212982 0.431899 0.431899 0.430555 0.430489 0.430205 0.429668 
0.429023 0.42775 0.426307 0.424174 0.422205 0.418987 0.415183 0.404582 0.391886 
0.367479 0.343721 0.329523 0.32588 0.323417 0.322368 0.321149 0.314159 0.299566 
0.277714 0.254767 0.246087 0.241189 0.235423 0.211612 0.432077 0.432077 0.430817 
0.430748 0.430465 0.429984 0.429466 0.428732 0.428047 0.426861 0.425368 0.422563 
0.418723 0.410188 0.402978 0.386621 0.360911 0.33678 0.327837 0.324848 0.324053 
0.320401 0.315337 0.308657 0.2903 0.263086 0.248332 0.241708 0.235106 0.210102 
0.43283 0.43283 0.431613 0.43157 0.431371 0.431037 0.430724 0.430301 0.429741 
0.428451 0.426728 0.423417 0.419722 0.41468 0.409694 0.395811 0.377355 0.350228 
0.332908 0.32648 0.324097 0.320901 0.318941 0.314289 0.299349 0.276178 0.253531 
0.243414 0.235034 0.209074 0.433956 0.433956 0.432915 0.432921 0.4328 0.43256 
0.432168 0.431504 0.430432 0.428763 0.42669 0.424068 0.421949 0.419531 0.415719 
0.404936 0.393558 0.368549 0.343674 0.32918 0.325247 0.32297 0.321007 0.314841 
0.306594 0.29089 0.26396 0.247321 0.23528 0.209072 0.43516 0.43516 0.434178 
0.434165 0.433966 0.433604 0.433019 0.432191 0.430969 0.429334 0.428014 0.426663 
0.425769 0.423379 0.419087 0.41058 0.403104 0.383189 0.358013 0.335711 0.327927 
0.324305 0.320769 0.316278 0.31279 0.302281 0.279125 0.254978 0.23736 0.209328 
0.435009 0.435009 0.434049 0.434018 0.433779 0.43344 0.432938 0.432402 0.431788 
0.431073 0.43055 0.429491 0.427608 0.424671 0.420233 0.415809 0.410812 0.393974 
0.374979 0.348425 0.331609 0.325425 0.322089 0.319752 0.317315 0.308115 0.295629 
0.269464 0.244213 0.210065 0.434728 0.434728 0.433797 0.433783 0.433614 0.433435 
0.433258 0.433242 0.433137 0.432819 0.432182 0.430425 0.428371 0.425464 0.423389 
0.420855 0.416825 0.402097 0.389603 0.364132 0.339974 0.328101 0.324335 0.321364 
0.317252 0.311402 0.306317 0.287788 0.260173 0.213513 0.435249 0.435249 0.434434 
0.434478 0.43442 0.434371 0.434354 0.434366 0.434173 0.43354 0.432413 0.430702 
0.428946 0.427868 0.426973 0.42401 0.418088 0.408181 0.399583 0.37745 0.353534 
0.334478 0.326688 0.322354 0.319291 0.316506 0.311883 0.298019 0.283164 0.223982 
0.436428 0.436428 0.435672 0.435765 0.435741 0.43569 0.435552 0.435239 0.434569 
0.4336 0.432454 0.431308 0.430721 0.430369 0.428532 0.42419 0.419781 0.415749 
0.410371 0.388895 0.369334 0.345027 0.33057 0.324521 0.321388 0.317999 0.313538 
0.306687 0.299342 0.242625 0.437321 0.437321 0.436615 0.436662 0.436587 0.436416 
0.436121 0.43561 0.434848 0.433891 0.433225 0.432696 0.432509 0.431803 0.428996 
0.42564 0.423712 0.420961 0.413427 0.397765 0.384373 0.358816 0.338451 0.328192 
0.323818 0.320141 0.316985 0.312751 0.306544 0.262617 0.437184 0.437184 0.436491 
0.436479 0.436352 0.436136 0.435873 0.43549 0.435086 0.434694 0.434598 0.434367 
0.433844 0.432149 0.43008 0.427947 0.426458 0.422423 0.415425 0.408905 0.397329 
0.37421 0.350677 0.333706 0.326635 0.322358 0.319388 0.315507 0.310608 0.281402 
0.4365 0.4365 0.43582 0.435804 0.435681 0.435532 0.435438 0.435421 0.435525 
0.43569 0.435834 0.435535 0.434411 0.432799 0.431503 0.430184 0.428166 0.423878 
0.419528 0.415328 0.403124 0.39021 0.367492 0.34386 0.330733 0.324401 0.320314 
0.317123 0.313985 0.29579 0.43609 0.43609 0.43545 0.435461 0.435414 0.435383 
0.435505 0.435742 0.436105 0.436424 0.436513 0.435893 0.434794 0.433675 0.432861 
0.431785 0.429559 0.426112 0.423651 0.419333 0.409418 0.40145 0.381707 0.359842 
0.3393 0.327653 0.322378 0.319227 0.316688 0.306058 0.436549 0.436549 0.435948 
0.436035 0.43605 0.436112 0.43629 0.436515 0.43674 0.436799 0.436511 0.435776 
0.435065 0.434536 0.433977 0.432798 0.430896 0.428323 0.426107 0.421835 0.416864 
0.409692 0.391541 0.375637 0.352838 0.334898 0.326428 0.321887 0.319157 0.313135 
0.437654 0.437654 0.437102 0.437219 0.437278 0.437338 0.437467 0.437466 0.437352 
0.436957 0.436349 0.435655 0.435316 0.43523 0.434743 0.433404 0.431918 0.429888 
0.427742 0.424921 0.421279 0.414451 0.400904 0.389449 0.369003 0.347719 0.333678 
0.325633 0.322705 0.319325 0.438939 0.438939 0.438413 0.438525 0.438546 0.438555 
0.438523 0.438286 0.437848 0.43717 0.436414 0.435821 0.43562 0.4358 0.43511 
0.433793 0.432636 0.431054 0.429352 0.427279 0.423616 0.417906 0.409619 0.400249 