# vtk DataFile Version 5.1
vtk output
ASCII
DATASET STRUCTURED_GRID
DIMENSIONS 13 33 41
POINTS 17589 float
2.54873 0.416658 -0.5 2.54873 0.416658 -0.497 2.54873 0.416658 -0.493548 
2.54873 0.416658 -0.489579 2.54873 0.416658 -0.485022 2.54873 0.416658 -0.479796 
2.54873 0.416658 -0.473812 2.54873 0.416658 -0.466971 2.54873 0.416658 -0.459165 
2.54873 0.416658 -0.450279 2.54873 0.416658 -0.440188 2.54873 0.416658 -0.428762 
2.54873 0.416658 -0.415865 2.52853 0.422973 -0.5 2.52853 0.422973 -0.497 
2.52853 0.422973 -0.493548 2.52853 0.422973 -0.489579 2.52853 0.422973 -0.485022 
2.52853 0.422973 -0.479796 2.52853 0.422973 -0.473812 2.52853 0.422973 -0.466971 
2.52853 0.422973 -0.459165 2.52853 0.422973 -0.450279 2.52853 0.422973 -0.440188 
2.52853 0.422973 -0.428762 2.52853 0.422973 -0.415865 2.50862 0.429195 -0.5 
2.50862 0.429195 -0.497 2.50862 0.429195 -0.493548 2.50862 0.429195 -0.489579 
2.50862 0.429195 -0.485022 2.50862 0.429195 -0.479796 2.50862 0.429195 -0.473812 
2.50862 0.429195 -0.466971 2.50862 0.429195 -0.459165 2.50862 0.429195 -0.450279 
2.50862 0.429195 -0.440188 2.50862 0.429195 -0.428762 2.50862 0.429195 -0.415865 
2.48909 0.435301 -0.5 2.48909 0.435301 -0.497 2.48909 0.435301 -0.493548 
2.48909 0.435301 -0.489579 2.48909 0.435301 -0.485022 2.48909 0.435301 -0.479796 
2.48909 0.435301 -0.473812 2.48909 0.435301 -0.466971 2.48909 0.435301 -0.459165 
2.48909 0.435301 -0.450279 2.48909 0.435301 -0.440188 2.48909 0.435301 -0.428762 
2.48909 0.435301 -0.415865 2.47 0.441267 -0.5 2.47 0.441267 -0.497 
2.47 0.441267 -0.493548 2.47 0.441267 -0.489579 2.47 0.441267 -0.485022 
2.47 0.441267 -0.479796 2.47 0.441267 -0.473812 2.47 0.441267 -0.466971 
2.47 0.441267 -0.459165 2.47 0.441267 -0.450279 2.47 0.441267 -0.440188 
2.47 0.441267 -0.428762 2.47 0.441267 -0.415865 2.45 0.441267 -0.5 
2.45 0.441267 -0.497 2.45 0.441267 -0.493548 2.45 0.441267 -0.489579 
2.45 0.441267 -0.485022 2.45 0.441267 -0.479796 2.45 0.441267 -0.473812 
2.45 0.441267 -0.466971 2.45 0.441267 -0.459165 2.45 0.441267 -0.450279 
2.45 0.441267 -0.440188 2.45 0.441267 -0.428762 2.45 0.441267 -0.415865 
2.42992 0.441267 -0.5 2.42992 0.441267 -0.497 2.42992 0.441267 -0.493548 
2.42992 0.441267 -0.489579 2.42992 0.441267 -0.485022 2.42992 0.441267 -0.479796 
2.42992 0.441267 -0.473812 2.42992 0.441267 -0.466971 2.42992 0.441267 -0.459165 
2.42992 0.441267 -0.450279 2.42992 0.441267 -0.440188 2.42992 0.441267 -0.428762 
2.42992 0.441267 -0.415865 2.40977 0.441267 -0.5 2.40977 0.441267 -0.497 
2.40977 0.441267 -0.493548 2.40977 0.441267 -0.489579 2.40977 0.441267 -0.485022 
2.40977 0.441267 -0.479796 2.40977 0.441267 -0.473812 2.40977 0.441267 -0.466971 
2.40977 0.441267 -0.459165 2.40977 0.441267 -0.450279 2.40977 0.441267 -0.440188 
2.40977 0.441267 -0.428762 2.40977 0.441267 -0.415865 2.38955 0.441267 -0.5 
2.38955 0.441267 -0.497 2.38955 0.441267 -0.493548 2.38955 0.441267 -0.489579 
2.38955 0.441267 -0.485022 2.38955 0.441267 -0.479796 2.38955 0.441267 -0.473812 
2.38955 0.441267 -0.466971 2.38955 0.441267 -0.459165 2.38955 0.441267 -0.450279 
2.38955 0.441267 -0.440188 2.38955 0.441267 -0.428762 2.38955 0.441267 -0.415865 
2.36927 0.441267 -0.5 2.36927 0.441267 -0.497 2.36927 0.441267 -0.493548 
2.36927 0.441267 -0.489579 2.36927 0.441267 -0.485022 2.36927 0.441267 -0.479796 
2.36927 0.441267 -0.473812 2.36927 0.441267 -0.466971 2.36927 0.441267 -0.459165 
2.36927 0.441267 -0.450279 2.36927 0.441267 -0.440188 2.36927 0.441267 -0.428762 
2.36927 0.441267 -0.415865 2.34894 0.441267 -0.5 2.34894 0.441267 -0.497 
2.34894 0.441267 -0.493548 2.34894 0.441267 -0.489579 2.34894 0.441267 -0.485022 
2.34894 0.441267 -0.479796 2.34894 0.441267 -0.473812 2.34894 0.441267 -0.466971 
2.34894 0.441267 -0.459165 2.34894 0.441267 -0.450279 2.34894 0.441267 -0.440188 
2.34894 0.441267 -0.428762 2.34894 0.441267 -0.415865 2.32855 0.441267 -0.5 
2.32855 0.441267 -0.497 2.32855 0.441267 -0.493548 2.32855 0.441267 -0.489579 
2.32855 0.441267 -0.485022 2.32855 0.441267 -0.479796 2.32855 0.441267 -0.473812 
2.32855 0.441267 -0.466971 2.32855 0.441267 -0.459165 2.32855 0.441267 -0.450279 
2.32855 0.441267 -0.440188 2.32855 0.441267 -0.428762 2.32855 0.441267 -0.415865 
2.30813 0.441267 -0.5 2.30813 0.441267 -0.497 2.30813 0.441267 -0.493548 
2.30813 0.441267 -0.489579 2.30813 0.441267 -0.485022 2.30813 0.441267 -0.479796 
2.30813 0.441267 -0.473812 2.30813 0.441267 -0.466971 2.30813 0.441267 -0.459165 
2.30813 0.441267 -0.450279 2.30813 0.441267 -0.440188 2.30813 0.441267 -0.428762 
2.30813 0.441267 -0.415865 2.28766 0.441267 -0.5 2.28766 0.441267 -0.497 
2.28766 0.441267 -0.493548 2.28766 0.441267 -0.489579 2.28766 0.441267 -0.485022 
2.28766 0.441267 -0.479796 2.28766 0.441267 -0.473812 2.28766 0.441267 -0.466971 
2.28766 0.441267 -0.459165 2.28766 0.441267 -0.450279 2.28766 0.441267 -0.440188 
2.28766 0.441267 -0.428762 2.28766 0.441267 -0.415865 2.26717 0.441267 -0.5 
2.26717 0.441267 -0.497 2.26717 0.441267 -0.493548 2.26717 0.441267 -0.489579 
2.26717 0.441267 -0.485022 2.26717 0.441267 -0.479796 2.26717 0.441267 -0.473812 
2.26717 0.441267 -0.466971 2.26717 0.441267 -0.459165 2.26717 0.441267 -0.450279 
2.26717 0.441267 -0.440188 2.26717 0.441267 -0.428762 2.26717 0.441267 -0.415865 
2.24665 0.441267 -0.5 2.24665 0.441267 -0.497 2.24665 0.441267 -0.493548 
2.24665 0.441267 -0.489579 2.24665 0.441267 -0.485022 2.24665 0.441267 -0.479796 
2.24665 0.441267 -0.473812 2.24665 0.441267 -0.466971 2.24665 0.441267 -0.459165 
2.24665 0.441267 -0.450279 2.24665 0.441267 -0.440188 2.24665 0.441267 -0.428762 
2.24665 0.441267 -0.415865 2.22611 0.441267 -0.5 2.22611 0.441267 -0.497 
2.22611 0.441267 -0.493548 2.22611 0.441267 -0.489579 2.22611 0.441267 -0.485022 
2.22611 0.441267 -0.479796 2.22611 0.441267 -0.473812 2.22611 0.441267 -0.466971 
2.22611 0.441267 -0.459165 2.22611 0.441267 -0.450279 2.22611 0.441267 -0.440188 
2.22611 0.441267 -0.428762 2.22611 0.441267 -0.415865 2.20556 0.441267 -0.5 
2.20556 0.441267 -0.497 2.20556 0.441267 -0.493548 2.20556 0.441267 -0.489579 
2.20556 0.441267 -0.485022 2.20556 0.441267 -0.479796 2.20556 0.441267 -0.473812 
2.20556 0.441267 -0.466971 2.20556 0.441267 -0.459165 2.20556 0.441267 -0.450279 
2.20556 0.441267 -0.440188 2.20556 0.441267 -0.428762 2.20556 0.441267 -0.415865 
2.185 0.441267 -0.5 2.185 0.441267 -0.497 2.185 0.441267 -0.493548 
2.185 0.441267 -0.489579 2.185 0.441267 -0.485022 2.185 0.441267 -0.479796 
2.185 0.441267 -0.473812 2.185 0.441267 -0.466971 2.185 0.441267 -0.459165 
2.185 0.441267 -0.450279 2.185 0.441267 -0.440188 2.185 0.441267 -0.428762 
2.185 0.441267 -0.415865 2.16444 0.441267 -0.5 2.16444 0.441267 -0.497 
2.16444 0.441267 -0.493548 2.16444 0.441267 -0.489579 2.16444 0.441267 -0.485022 
2.16444 0.441267 -0.479796 2.16444 0.441267 -0.473812 2.16444 0.441267 -0.466971 
2.16444 0.441267 -0.459165 2.16444 0.441267 -0.450279 2.16444 0.441267 -0.440188 
2.16444 0.441267 -0.428762 2.16444 0.441267 -0.415865 2.14389 0.441267 -0.5 
2.14389 0.441267 -0.497 2.14389 0.441267 -0.493548 2.14389 0.441267 -0.489579 
2.14389 0.441267 -0.485022 2.14389 0.441267 -0.479796 2.14389 0.441267 -0.473812 
2.14389 0.441267 -0.466971 2.14389 0.441267 -0.459165 2.14389 0.441267 -0.450279 
2.14389 0.441267 -0.440188 2.14389 0.441267 -0.428762 2.14389 0.441267 -0.415865 
2.12335 0.441267 -0.5 2.12335 0.441267 -0.497 2.12335 0.441267 -0.493548 
2.12335 0.441267 -0.489579 2.12335 0.441267 -0.485022 2.12335 0.441267 -0.479796 
2.12335 0.441267 -0.473812 2.12335 0.441267 -0.466971 2.12335 0.441267 -0.459165 
2.12335 0.441267 -0.450279 2.12335 0.441267 -0.440188 2.12335 0.441267 -0.428762 
2.12335 0.441267 -0.415865 2.10283 0.441267 -0.5 2.10283 0.441267 -0.497 
2.10283 0.441267 -0.493548 2.10283 0.441267 -0.489579 2.10283 0.441267 -0.485022 
2.10283 0.441267 -0.479796 2.10283 0.441267 -0.473812 2.10283 0.441267 -0.466971 
2.10283 0.441267 -0.459165 2.10283 0.441267 -0.450279 2.10283 0.441267 -0.440188 
2.10283 0.441267 -0.428762 2.10283 0.441267 -0.415865 2.08234 0.441267 -0.5 
2.08234 0.441267 -0.497 2.08234 0.441267 -0.493548 2.08234 0.441267 -0.489579 
2.08234 0.441267 -0.485022 2.08234 0.441267 -0.479796 2.08234 0.441267 -0.473812 
2.08234 0.441267 -0.466971 2.08234 0.441267 -0.459165 2.08234 0.441267 -0.450279 
2.08234 0.441267 -0.440188 2.08234 0.441267 -0.428762 2.08234 0.441267 -0.415865 
2.06187 0.441267 -0.5 2.06187 0.441267 -0.497 2.06187 0.441267 -0.493548 
2.06187 0.441267 -0.489579 2.06187 0.441267 -0.485022 2.06187 0.441267 -0.479796 
2.06187 0.441267 -0.473812 2.06187 0.441267 -0.466971 2.06187 0.441267 -0.459165 
2.06187 0.441267 -0.450279 2.06187 0.441267 -0.440188 2.06187 0.441267 -0.428762 
2.06187 0.441267 -0.415865 2.04145 0.441267 -0.5 2.04145 0.441267 -0.497 
2.04145 0.441267 -0.493548 2.04145 0.441267 -0.489579 2.04145 0.441267 -0.485022 
2.04145 0.441267 -0.479796 2.04145 0.441267 -0.473812 2.04145 0.441267 -0.466971 
2.04145 0.441267 -0.459165 2.04145 0.441267 -0.450279 2.04145 0.441267 -0.440188 
2.04145 0.441267 -0.428762 2.04145 0.441267 -0.415865 2.02106 0.441267 -0.5 
2.02106 0.441267 -0.497 2.02106 0.441267 -0.493548 2.02106 0.441267 -0.489579 
2.02106 0.441267 -0.485022 2.02106 0.441267 -0.479796 2.02106 0.441267 -0.473812 
2.02106 0.441267 -0.466971 2.02106 0.441267 -0.459165 2.02106 0.441267 -0.450279 
2.02106 0.441267 -0.440188 2.02106 0.441267 -0.428762 2.02106 0.441267 -0.415865 
2.00073 0.441267 -0.5 2.00073 0.441267 -0.497 2.00073 0.441267 -0.493548 
2.00073 0.441267 -0.489579 2.00073 0.441267 -0.485022 2.00073 0.441267 -0.479796 
2.00073 0.441267 -0.473812 2.00073 0.441267 -0.466971 2.00073 0.441267 -0.459165 
2.00073 0.441267 -0.450279 2.00073 0.441267 -0.440188 2.00073 0.441267 -0.428762 
2.00073 0.441267 -0.415865 1.98045 0.441267 -0.5 1.98045 0.441267 -0.497 
1.98045 0.441267 -0.493548 1.98045 0.441267 -0.489579 1.98045 0.441267 -0.485022 
1.98045 0.441267 -0.479796 1.98045 0.441267 -0.473812 1.98045 0.441267 -0.466971 
[...]
POINT_DATA 17589
FIELD FieldData 5
pressure 1 17589 float
0.178573 0.155582 0.156529 0.156295 0.155524 0.154284 0.152568 0.151776 0.152035 
0.153648 0.155595 0.157554 0.157837 0.178573 0.0944887 0.093152 0.0907121 0.0876865 
0.0845067 0.0835206 0.085081 0.0903454 0.0976678 0.107333 0.116871 0.127211 0.178573 
0.086611 0.085994 0.0841723 0.081768 0.0813075 0.0837256 0.0886003 0.0940095 0.0991652 
0.103516 0.107101 0.110983 0.178573 0.0944516 0.0947048 0.0944908 0.0964131 0.100805 
0.107727 0.113508 0.117723 0.118147 0.116865 0.113582 0.110363 0.178573 0.0975668 
0.101765 0.111026 0.124256 0.13742 0.145293 0.149428 0.148064 0.145234 0.140384 
0.136784 0.133255 0.318002 0.318002 0.317885 0.315688 0.305631 0.290233 0.273722 
0.263042 0.256553 0.254756 0.253227 0.252594 0.251288 0.241546 0.241546 0.241417 
0.24225 0.242144 0.241775 0.241001 0.240996 0.241401 0.242476 0.243358 0.244295 
0.245786 0.25021 0.25021 0.250938 0.251057 0.250828 0.248862 0.247892 0.246718 
0.246948 0.247088 0.24804 0.248349 0.250309 0.26301 0.26301 0.262996 0.263904 
0.262184 0.261355 0.259536 0.259302 0.258778 0.2593 0.25917 0.259483 0.260991 
0.275624 0.275624 0.275712 0.274589 0.273803 0.27122 0.270536 0.269108 0.269462 
0.268872 0.269238 0.268695 0.270633 0.287969 0.287969 0.285975 0.285748 0.283105 
0.281959 0.279801 0.279383 0.278212 0.278352 0.277276 0.277398 0.278397 0.294909 
0.294909 0.29205 0.289771 0.288241 0.285569 0.284195 0.282457 0.282039 0.280792 
0.280628 0.279334 0.281006 0.289944 0.289944 0.285101 0.28454 0.282042 0.280936 
0.27871 0.277905 0.276365 0.275719 0.274164 0.273732 0.273622 0.271044 0.271044 
0.266998 0.265024 0.264118 0.262038 0.261102 0.259465 0.258759 0.256962 0.256073 
0.25435 0.25433 0.243481 0.243481 0.239887 0.23928 0.23784 0.236783 0.23534 
0.234486 0.232944 0.231832 0.229977 0.22894 0.227896 0.217932 0.217932 0.215995 
0.215212 0.214479 0.213441 0.212584 0.211516 0.210583 0.209313 0.208328 0.207236 
0.206846 0.200572 0.200572 0.1995 0.199023 0.198471 0.197759 0.197113 0.196405 
0.195672 0.194928 0.194324 0.193859 0.193659 0.19099 0.19099 0.19031 0.190034 
0.189459 0.189058 0.188457 0.188018 0.187467 0.187144 0.186777 0.18668 0.186726 
0.185792 0.185792 0.185539 0.18506 0.184863 0.184317 0.18401 0.18355 0.183359 
0.183046 0.183051 0.182997 0.183248 0.182754 0.182754 0.182424 0.182211 0.181846 
0.181633 0.181311 0.18119 0.180961 0.181005 0.18094 0.181137 0.181297 0.181012 
0.181012 0.180844 0.180593 0.180478 0.180258 0.180178 0.179976 0.180032 0.179956 
0.180132 0.18018 0.180438 0.180827 0.180827 0.180628 0.18048 0.180276 0.180144 
0.179939 0.179931 0.179805 0.179953 0.179921 0.180205 0.180322 0.181684 0.181684 
0.18153 0.181289 0.181052 0.180744 0.180668 0.1805 0.180546 0.180461 0.180627 
0.180683 0.180932 0.182261 0.182261 0.182061 0.181879 0.181555 0.181344 0.181225 
0.181305 0.181307 0.181445 0.181412 0.18157 0.181541 0.181925 0.181925 0.181844 
0.181708 0.181546 0.181365 0.181486 0.181619 0.18187 0.181994 0.182065 0.181979 
0.181868 0.181995 0.181995 0.181892 0.181855 0.181617 0.181506 0.181557 0.181757 
0.181912 0.182103 0.182086 0.182136 0.182031 0.183188 0.183188 0.183083 0.182917 
0.182495 0.18204 0.181894 0.181831 0.181925 0.182067 0.182426 0.182683 0.182958 
0.184076 0.184076 0.184039 0.183957 0.18364 0.183158 0.182818 0.182897 0.183208 
0.18384 0.184418 0.184552 0.184241 0.183429 0.183429 0.183573 0.183692 0.18406 
0.184312 0.18454 0.184699 0.185048 0.185217 0.185276 0.184908 0.184569 0.183179 
0.183179 0.183022 0.183151 0.183406 0.183964 0.184243 0.184539 0.184769 0.184975 
0.184654 0.1845 0.184211 0.182886 0.182886 0.182698 0.182714 0.182875 0.183359 
0.183769 0.183836 0.184221 0.18395 0.183578 0.182477 0.18241 0.184179 0.184179 
0.185333 0.186414 0.18667 0.187249 0.187626 0.187325 0.186927 0.186577 0.186891 
0.187763 0.187915 0.202944 0.202944 0.201706 0.201492 0.201456 0.201531 0.202076 
0.203198 0.203915 0.204504 0.204618 0.204464 0.203292 0.155582 0.155582 0.156529 
0.156295 0.155524 0.154284 0.152568 0.151776 0.152035 0.153648 0.155595 0.157554 
0.157837 0.0944887 0.0944887 0.093152 0.0907121 0.0876865 0.0845067 0.0835206 0.085081 
0.0903454 0.0976678 0.107333 0.116871 0.127211 0.086611 0.086611 0.085994 0.0841723 
0.081768 0.0813075 0.0837256 0.0886003 0.0940095 0.0991652 0.103516 0.107101 0.110983 
0.0944516 0.0944516 0.0947048 0.0944908 0.0964131 0.100805 0.107727 0.113508 0.117723 
0.118147 0.116865 0.113582 0.110363 0.0975668 0.0975668 0.101765 0.111026 0.124256 
0.13742 0.145293 0.149428 0.148064 0.145234 0.140384 0.136784 0.133255 0.250324 
0.250324 0.247844 0.245978 0.241988 0.237108 0.232439 0.227967 0.225411 0.223247 
0.222897 0.221279 0.220764 0.221483 0.221483 0.221329 0.220627 0.219471 0.219346 
0.218692 0.219273 0.218684 0.219711 0.219006 0.219848 0.221279 0.227603 0.227603 
0.226946 0.225708 0.224435 0.22328 0.223 0.221671 0.222153 0.22087 0.221689 
0.220949 0.223675 0.238491 0.238491 0.236095 0.235414 0.23369 0.233028 0.231394 
0.231122 0.229586 0.229508 0.228159 0.228481 0.230688 0.247149 0.247149 0.243963 
0.242722 0.241544 0.239515 0.238213 0.236043 0.235187 0.233374 0.232911 0.231946 
0.235008 0.255288 0.255288 0.250705 0.250231 0.24782 0.245983 0.242781 0.240854 
0.238252 0.236691 0.234968 0.234673 0.236775 0.255489 0.255489 0.250706 0.249755 
0.248448 0.245318 0.242804 0.239627 0.237588 0.235277 0.233859 0.233036 0.23437 
0.245556 0.245556 0.241619 0.240707 0.238578 0.235934 0.233063 0.230421 0.228149 
0.22599 0.224731 0.223626 0.224436 0.228297 0.228297 0.225283 0.224825 0.223002 
0.221116 0.218659 0.216976 0.214594 0.213527 0.211552 0.211423 0.210776 0.20979 
0.20979 0.208524 0.207724 0.206987 0.205157 0.204171 0.202203 0.201517 0.199608 
0.199462 0.198077 0.198693 0.196806 0.196806 0.195731 0.195656 0.194588 0.19411 
0.192721 0.192353 0.190981 0.190934 0.189785 0.19008 0.189477 0.188914 0.188914 
0.188683 0.188171 0.187967 0.18704 0.18679 0.185869 0.185839 0.185038 0.18529 
0.184746 0.185272 0.185332 0.185332 0.184979 0.184874 0.184317 0.184067 0.18338 
0.183287 0.18271 0.182851 0.182443 0.182756 0.182599 0.183375 0.183375 0.183367 
0.183039 0.182921 0.182364 0.182224 0.181739 0.18178 0.181433 0.181636 0.181449 
0.181739 0.182364 0.182364 0.182316 0.182337 0.182002 0.181906 0.181488 0.181481 
0.181206 0.181335 0.181173 0.18136 0.181251 0.181695 0.181695 0.181889 0.181679 
0.181782 0.181428 0.181449 0.181214 0.181326 0.181169 0.181354 0.181239 0.181328 
0.182014 0.182014 0.181997 0.182085 0.181825 0.181805 0.181567 0.181605 0.181489 
0.18162 0.181514 0.181669 0.181548 0.1828 0.1828 0.182977 0.182674 0.182661 
0.18228 0.182245 0.182067 0.182123 0.182022 0.182132 0.182045 0.182118 0.183332 
0.183332 0.183323 0.183293 0.182937 0.182845 0.182623 0.182669 0.182577 0.182681 
0.182561 0.18267 0.182521 0.183179 0.183179 0.183379 0.183118 0.183145 0.182909 
0.182987 0.182957 0.183087 0.183046 0.183115 0.182982 0.182926 0.183512 0.183512 
0.183586 0.183573 0.183265 0.183254 0.183164 0.183268 0.183249 0.183364 0.183259 
0.183333 0.183201 0.184381 0.184381 0.18454 0.184036 0.183832 0.183512 0.183495 
0.18344 0.183503 0.183435 0.183484 0.183379 0.183405 0.184872 0.184872 0.184717 
0.184279 0.18376 0.183646 0.183527 0.183616 0.183544 0.183554 0.18339 0.183352 
0.1832 0.184425 0.184425 0.18435 0.183837 0.183629 0.183314 0.183294 0.183264 
0.183322 0.183338 0.183377 0.183333 0.183445 0.184319 0.184319 0.184051 0.183741 
0.183392 0.183181 0.182998 0.183038 0.18303 0.183055 0.183006 0.182984 0.182939 
0.183619 0.183619 0.183465 0.182914 0.1826 0.18219 0.182019 0.18206 0.182116 
0.182146 0.182167 0.182191 0.182717 0.181913 0.181913 0.181536 0.181553 0.181467 
0.18158 0.181576 0.181594 0.181609 0.181609 0.181675 0.181818 0.182653 0.178584 
0.178584 0.178813 0.178811 0.178951 0.178974 0.179173 0.179129 0.179054 0.1789 
0.178843 0.178648 0.177901 0.157005 0.157005 0.15788 0.158066 0.158956 0.158484 
0.157546 0.156263 0.156084 0.156775 0.158169 0.15912 0.159041 0.0958125 0.0958125 
0.0937855 0.0910296 0.0878927 0.08474 0.0828442 0.08444 0.0893034 0.0978106 0.107579 
0.117833 0.127208 0.0854821 0.0854821 0.083962 0.0821261 0.0798128 0.0798823 0.082182 
0.0872065 0.0924079 0.0978925 0.102322 0.106696 0.110599 0.0958632 0.0958632 0.0966135 
0.0966661 0.0988119 0.103716 0.110238 0.116081 0.119718 0.120216 0.118851 0.115819 
0.112915 0.12016 0.12016 0.12529 0.133697 0.143756 0.152693 0.158871 0.161215 
0.160579 0.157352 0.153379 0.149126 0.144945 0.235992 0.235992 0.233066 0.230457 
0.226678 0.223168 0.219093 0.214626 0.210547 0.207934 0.206001 0.204309 0.20325 
0.213136 0.213136 0.213382 0.212435 0.211457 0.209427 0.208679 0.206573 0.206553 
0.204742 0.205149 0.203716 0.205327 0.21944 0.21944 0.218089 0.217718 0.21533 
0.213864 0.211118 0.210592 0.208024 0.207879 0.20577 0.206019 0.207278 0.229554 
0.229554 0.22809 0.226369 0.224802 0.221557 0.22015 0.217002 0.216144 0.213469 
0.212965 0.211431 0.213594 0.238732 0.238732 0.234765 0.234333 0.231029 0.228708 
0.224904 0.223312 0.219754 0.218747 0.216033 0.21584 0.217575 0.245692 0.245692 
0.241528 0.239198 0.237124 0.233038 0.230192 0.225929 0.223995 0.220541 0.219513 
0.21778 0.220221 0.246095 0.246095 0.24047 0.239543 0.23627 0.233392 0.229165 
0.226718 0.222901 0.221348 0.2187 0.218519 0.219049 0.236117 0.236117 0.232385 
0.230583 0.228695 0.225346 0.222999 0.219481 0.217893 0.214924 0.214199 0.212541 
0.213753 0.220483 0.220483 0.21744 0.216825 0.214877 0.213327 0.210778 0.209469 
0.206928 0.206164 0.204145 0.204171 0.203536 0.204281 0.204281 0.203032 0.202194 
0.201531 0.200059 0.199211 0.19751 0.196899 0.195278 0.195079 0.193962 0.194423 
0.193387 0.193387 0.192423 0.192229 0.19151 0.191036 0.190034 0.18962 0.188607 
0.188432 0.187619 0.187722 0.187431 0.187061 0.187061 0.186672 0.186354 0.186106 
0.18552 0.185191 0.184577 0.184405 0.183895 0.183937 0.183636 0.183978 0.184146 
0.184146 0.183874 0.183652 0.18337 0.183032 0.182625 0.182369 0.182058 0.181985 
0.18183 0.181918 0.181984 0.182746 0.182746 0.182538 0.182385 0.182102 0.181835 
0.181495 0.1813 0.181141 0.181075 0.181041 0.181077 0.181194 0.181884 0.181884 
0.181889 0.181596 0.18156 0.18122 0.18112 0.180902 0.180927 0.180818 0.180922 
0.180872 0.180964 0.181579 0.181579 0.18141 0.181376 0.181129 0.181122 0.180906 
0.181004 0.180894 0.181029 0.180927 0.181058 0.180939 0.181746 0.181746 0.181749 
0.18136 0.181462 0.181229 0.181354 0.181247 0.181376 0.181306 0.18144 0.181316 
0.181373 0.182571 0.182571 0.182317 0.182109 0.181817 0.181873 0.181732 0.181847 
0.181773 0.181906 0.181785 0.181899 0.18172 0.182896 0.182896 0.182878 0.182342 
0.182331 0.182135 0.182248 0.182205 0.182334 0.182278 0.182382 0.182206 0.182227 
0.183031 0.183031 0.182858 0.182558 0.182335 0.182475 0.182482 0.18265 0.18266 
0.182793 0.182661 0.182717 0.182483 0.183078 0.183078 0.182985 0.182512 0.182629 
0.182616 0.182812 0.182865 0.182999 0.182971 0.18304 0.182863 0.182873 0.183417 
0.183417 0.183095 0.18286 0.182723 0.182922 0.182963 0.183125 0.183117 0.183195 
0.183046 0.183069 0.182875 0.183212 0.183212 0.18304 0.182626 0.182737 0.182736 
0.182958 0.182991 0.18309 0.182988 0.183084 0.183015 0.18306 0.182867 0.182867 
0.182509 0.182491 0.182492 0.182675 0.182751 0.182922 0.182928 0.182981 0.182922 
0.182945 0.18288 0.182169 0.182169 0.182418 0.182179 0.18227 0.1822 0.182301 
0.182348 0.182384 0.18234 0.182294 0.182085 0.182231 0.181764 0.181764 0.181614 
0.181602 0.181679 0.181841 0.181821 0.181943 0.181952 0.18202 0.181881 0.181802 
0.181797 0.181513 0.181513 0.181723 0.181672 0.181823 0.181858 0.181884 0.181805 
0.181805 0.181757 0.181839 0.181853 0.182325 0.18129 0.18129 0.181689 0.181944 
0.18192 0.182028 0.18212 0.182246 0.182268 0.182341 0.182299 0.182262 0.18154 
0.158563 0.158563 0.159681 0.16088 0.161294 0.161307 0.160055 0.158768 0.158293 
0.158593 0.159261 0.159827 0.158726 0.0961571 0.0961571 0.0933999 0.0904184 0.086487 
0.0827764 0.0814703 0.0829722 0.0887226 0.0972472 0.108204 0.118901 0.129181 0.08628 
0.08628 0.0852284 0.0828381 0.0808391 0.0808105 0.0831368 0.0878179 0.0930805 0.0983071 
0.102802 0.107035 0.111435 0.102818 0.102818 0.10379 0.104125 0.106939 0.110901 
0.117244 0.122033 0.125714 0.125677 0.124709 0.121556 0.118814 0.13894 0.13894 
0.143134 0.149897 0.15725 0.164701 0.169065 0.171494 0.170122 0.167695 0.163499 
0.159439 0.154522 0.222726 0.222726 0.220213 0.219009 0.216984 0.214829 0.212249 
0.208501 0.205247 0.202346 0.20015 0.19811 0.196854 0.206881 0.206881 0.206435 
0.206509 0.205293 0.204672 0.202869 0.202505 0.200447 0.20043 0.198552 0.198672 
0.198644 0.211843 0.211843 0.211407 0.210674 0.209867 0.207496 0.206951 0.204536 
0.204113 0.201726 0.201576 0.199844 0.201459 0.222811 0.222811 0.220187 0.220245 
0.217741 0.216186 0.21312 0.21214 0.209151 0.208413 0.20593 0.205789 0.206633 
0.230404 0.230404 0.227677 0.225891 0.224318 0.220815 0.219082 0.215391 0.214232 
0.211043 0.210535 0.208549 0.211073 0.237703 0.237703 0.232326 0.231436 0.227788 
0.225369 0.221145 0.219296 0.215399 0.214313 0.211434 0.211397 0.212827 0.236263 
0.236263 0.231558 0.229356 0.227222 0.223575 0.221246 0.217515 0.21597 0.212927 
0.212163 0.210682 0.212361 0.227037 0.227037 0.222785 0.221748 0.219274 0.217332 
0.214316 0.212671 0.209956 0.208806 0.20687 0.206603 0.206826 0.212427 0.212427 
0.210076 0.209113 0.208023 0.20628 0.204967 0.203048 0.20194 0.200329 0.199552 
0.19876 0.198934 0.199102 0.199102 0.197755 0.197361 0.196635 0.195865 0.194825 
0.193999 0.192968 0.19224 0.191531 0.191114 0.191138 0.190181 0.190181 0.189385 
0.189202 0.188816 0.188346 0.1878 0.187256 0.186744 0.186327 0.185945 0.185793 
0.185791 0.185262 0.185262 0.184858 0.184639 0.184483 0.184091 0.183819 0.183427 
0.183221 0.182915 0.182874 0.182695 0.182936 0.183057 0.183057 0.182626 0.182622 
0.182321 0.182193 0.181833 0.18172 0.181448 0.18146 0.181274 0.181407 0.181411 
0.181909 0.181909 0.181816 0.181529 0.181571 0.181226 0.181176 0.180891 0.180928 
0.180732 0.180877 0.180746 0.180961 0.181617 0.181617 0.181288 0.181359 0.18111 
0.181122 0.180849 0.18089 0.180709 0.180844 0.1807 0.180878 0.180758 0.181367 
0.181367 0.181345 0.181097 0.181254 0.181011 0.181075 0.180906 0.181019 0.180898 
0.181077 0.180928 0.181034 0.181892 0.181892 0.181544 0.181629 0.181433 0.181498 
0.181332 0.181406 0.181303 0.181459 0.181336 0.181492 0.181307 0.182436 0.182436 
0.182295 0.182003 0.182102 0.181892 0.181939 0.18184 0.181925 0.181867 0.181995 
0.181843 0.181895 0.18298 0.18298 0.182642 0.182574 0.182385 0.182419 0.18234 
0.182417 0.18239 0.182506 0.182407 0.182492 0.182295 0.183105 0.183105 0.182957 
0.182651 0.182744 0.182669 0.182775 0.182791 0.182894 0.182886 0.182955 0.18279 
0.18276 0.183412 0.183412 0.183036 0.182958 0.18286 0.182967 0.182987 0.183121 
0.183139 0.183225 0.183121 0.18315 0.182972 0.183438 0.183438 0.183236 0.182996 
0.183079 0.18304 0.183177 0.183215 0.183294 0.183263 0.183307 0.183133 0.183143 
0.183304 0.183304 0.183041 0.183014 0.182891 0.183001 0.183001 0.183105 0.18311 
0.183173 0.183067 0.183085 0.182932 0.182682 0.182682 0.182746 0.182498 0.182613 
0.182555 0.182649 0.182663 0.182708 0.182702 0.182742 0.182607 0.182615 0.182231 
0.182231 0.1822 0.182204 0.182159 0.182203 0.182164 0.18224 0.1822 0.182199 
0.182078 0.182032 0.181997 0.181782 0.181782 0.181833 0.181729 0.181829 0.18176 
0.181772 0.181795 0.181818 0.181834 0.181842 0.181755 0.181876 0.181761 0.181761 
0.181749 0.181775 0.181796 0.181844 0.18181 0.181769 0.181737 0.181714 0.181764 
0.181764 0.182064 0.182567 0.182567 0.182464 0.182405 0.182393 0.18231 0.182386 
0.182417 0.182472 0.182486 0.182493 0.182426 0.181819 0.159948 0.159948 0.161551 
0.162713 0.16357 0.163097 0.161873 0.160204 0.15958 0.159249 0.159735 0.159399 
0.158258 0.0968558 0.0968558 0.0937236 0.0904825 0.0863167 0.0833598 0.0822511 0.0847099 
0.0904178 0.0997909 0.110549 0.122066 0.132091 0.0879493 0.0879493 0.0869689 0.0847904 
0.0835438 0.0836044 0.0863526 0.09029 0.0957432 0.100376 0.105415 0.109228 0.114506 
0.110001 0.110001 0.110594 0.111515 0.113601 0.118134 0.12282 0.127872 0.130362 
0.131261 0.12993 0.127995 0.125617 0.151333 0.151333 0.154699 0.159592 0.166069 
0.171517 0.176017 0.176793 0.176353 0.173303 0.17006 0.165571 0.161047 0.21339 
0.21339 0.211542 0.211836 0.210369 0.209034 0.206133 0.204068 0.20084 0.199094 
0.196764 0.195271 0.19364 0.200278 0.200278 0.200138 0.200345 0.200224 0.198987 
0.19885 0.197305 0.197442 0.195911 0.196167 0.194587 0.195381 0.205854 0.205854 
0.204124 0.20486 0.203361 0.202821 0.200556 0.200762 0.198476 0.198566 0.196642 
0.196752 0.197008 0.214643 0.214643 0.213125 0.212107 0.211396 0.208653 0.207848 
0.204964 0.204769 0.202233 0.202226 0.200544 0.20224 0.223053 0.223053 0.218867 
0.218672 0.215483 0.214159 0.210207 0.209935 0.206468 0.206489 0.203993 0.204272 
0.205105 0.227399 0.227399 0.223422 0.221191 0.219396 0.215646 0.214127 0.210213 
0.209804 0.20664 0.206634 0.204764 0.20719 0.226332 0.226332 0.221022 0.219988 
0.217139 0.215328 0.211825 0.210826 0.207657 0.207212 0.204967 0.20517 0.205643 
0.216823 0.216823 0.213735 0.212224 0.210994 0.208697 0.207424 0.204885 0.204206 
0.201992 0.201697 0.200454 0.201378 0.204969 0.204969 0.202774 0.202375 0.201175 
0.200413 0.198768 0.198147 0.19644 0.196089 0.194698 0.194738 0.194394 0.194175 
0.194175 0.193174 0.192803 0.192518 0.191733 0.191333 0.190314 0.190027 0.189011 
0.188896 0.188223 0.18853 0.187377 0.187377 0.186722 0.186641 0.186356 0.18613 
0.185625 0.185409 0.184837 0.184729 0.184264 0.184291 0.184225 0.18374 0.18374 
0.18326 0.183234 0.183084 0.182865 0.18267 0.182369 0.182259 0.182 0.181985 
0.181852 0.18205 0.182034 0.182034 0.18176 0.181646 0.18161 0.181407 0.181248 
0.181092 0.18096 0.180899 0.180857 0.180851 0.180967 0.181483 0.181483 0.181089 
0.181163 0.180972 0.180924 0.180727 0.180646 0.180553 0.180549 0.180501 0.180576 
0.180586 0.181147 0.181147 0.181028 0.180881 0.180973 0.18078 0.180749 0.18062 
0.180625 0.180564 0.180655 0.180587 0.180665 0.181404 0.181404 0.181009 0.181161 
0.181011 0.18105 0.180906 0.180904 0.180838 0.180912 0.180854 0.180959 0.180831 
0.181659 0.181659 0.181519 0.181414 0.181532 0.181382 0.181391 0.181299 0.181336 
0.181302 0.181406 0.181297 0.181324 0.182422 0.182422 0.181986 0.182083 0.181957 
0.181973 0.181861 0.181881 0.181825 0.181921 0.181847 0.181933 0.181753 0.18267 
0.18267 0.182518 0.182403 0.182474 0.182367 0.18241 0.182368 0.182428 0.182411 
0.182485 0.182339 0.182324 0.183122 0.183122 0.182764 0.182829 0.182745 0.1828 
0.182776 0.18285 0.182847 0.182924 0.182839 0.182857 0.182657 0.183165 0.183165 
0.183072 0.182997 0.183031 0.182982 0.183076 0.183094 0.183156 0.183142 0.183172 
0.183004 0.182978 0.183377 0.183377 0.183136 0.183131 0.183037 0.183097 0.183095 
0.183172 0.183185 0.183224 0.183145 0.183135 0.182972 0.182975 0.182975 0.182957 
0.182803 0.182841 0.18281 0.182886 0.182924 0.18295 0.182951 0.182956 0.182822 
0.182798 0.182495 0.182495 0.182426 0.18245 0.182406 0.182459 0.182476 0.182545 
0.182559 0.182567 0.182513 0.182503 0.182389 0.182081 0.182081 0.182114 0.181958 
0.181975 0.181989 0.182022 0.182066 0.182049 0.182048 0.182012 0.181891 0.181907 
0.181975 0.181975 0.181888 0.181887 0.181894 0.181856 0.181854 0.181827 0.181866 
0.181842 0.181835 0.181738 0.181787 0.181843 0.181843 0.18182 0.181819 0.181855 
0.181887 0.181866 0.181846 0.181787 0.181778 0.181765 0.181788 0.182067 0.182328 
0.182328 0.182277 0.18231 0.182232 0.182277 0.182282 0.182354 0.182361 0.182424 
0.182393 0.182419 0.181965 0.161039 0.161039 0.162432 0.163954 0.164237 0.163839 
0.161879 0.160733 0.159277 0.159589 0.158779 0.159068 0.156624 0.099207 0.099207 
0.0963308 0.0927987 0.0895586 0.0868331 0.0870759 0.0896456 0.0963288 0.10485 0.116332 
0.126719 0.13728 0.0925718 0.0925718 0.0911407 0.0897062 0.088545 0.0894215 0.091708 
0.0959614 0.100581 0.105693 0.110274 0.115043 0.120409 0.11872 0.11872 0.119598 
0.120404 0.122939 0.126315 0.131187 0.134701 0.137451 0.137599 0.137102 0.13527 