# vtk DataFile Version 5.1
vtk output
ASCII
DATASET POLYDATA
POINTS 358 float
1.33248 0.835101 0.182417 1.3476 0.819985 0.182417 1.34142 0.826163 0.182417 
1.33536 0.832222 0.182417 1.33646 0.831125 0.182417 1.33497 0.836652 0.178378 
1.34922 0.818365 0.182417 1.35524 0.812348 0.182417 1.34898 0.820838 0.180182 
1.34807 0.830289 0.171641 1.34736 0.837908 0.164732 1.34679 0.844012 0.159198 
1.36252 0.805063 0.182417 1.36462 0.802964 0.182417 1.36137 0.816105 0.172525 
1.36018 0.827746 0.162074 1.35922 0.837195 0.153585 1.37532 0.792265 0.182417 
1.37605 0.791533 0.182417 1.37352 0.808338 0.168142 1.37194 0.822559 0.155501 
1.38764 0.779942 0.182417 1.38983 0.777749 0.182417 1.38557 0.797171 0.167259 
1.38352 0.814356 0.152124 1.39955 0.768031 0.182417 1.40625 0.761328 0.182417 
1.39771 0.782287 0.170003 1.39507 0.802773 0.152157 1.41109 0.756493 0.182417 
1.41012 0.763479 0.176401 1.40679 0.787497 0.155713 1.4223 0.745283 0.182417 
1.42552 0.742061 0.182417 1.41887 0.768323 0.162807 1.43322 0.734364 0.182417 
1.43149 0.74522 0.17329 1.42711 0.772846 0.150044 1.4439 0.723678 0.182417 
1.44772 0.719859 0.182417 1.43953 0.749435 0.161035 1.45437 0.713209 0.182417 
1.45272 0.722343 0.174937 1.4471 0.753376 0.149524 1.46467 0.702914 0.182417 
1.47274 0.694842 0.182417 1.46021 0.726034 0.163756 1.47483 0.692751 0.182417 
1.47426 0.695545 0.180195 1.46731 0.729495 0.153195 1.48488 0.682706 0.182417 
1.48138 0.698813 0.169807 1.49485 0.672732 0.182417 1.50018 0.667401 0.182417 
1.48816 0.701887 0.159953 1.50475 0.662832 0.182417 1.50332 0.668738 0.177942 
1.4946 0.704781 0.150619 1.51464 0.652945 0.182417 1.5099 0.671508 0.168592 
1.52451 0.643073 0.182417 1.52934 0.638245 0.182417 1.51618 0.674128 0.159692 
1.53441 0.633176 0.182417 1.53262 0.639529 0.177851 1.52219 0.676606 0.151204 
1.54432 0.62326 0.182417 1.53882 0.641937 0.169243 1.55431 0.613275 0.182417 
1.54478 0.644226 0.160994 1.35756 0.844251 0.148191 1.35357 0.848237 0.148191 
1.36877 0.833038 0.148191 1.35861 0.843196 0.148191 1.36255 0.839258 0.148191 
1.35845 0.844805 0.146745 1.35784 0.850897 0.141263 1.37104 0.830772 0.148191 
1.37648 0.825326 0.148191 1.37066 0.834202 0.145138 1.36963 0.843644 0.136726 
1.36881 0.851243 0.129947 1.36815 0.857321 0.124529 1.38299 0.818819 0.148191 
1.38598 0.815831 0.148191 1.38183 0.828583 0.139587 1.38045 0.840222 0.129328 
1.37934 0.849655 0.121005 1.37846 0.857241 0.114299 1.39449 0.807321 0.148191 
1.39757 0.80424 0.148191 1.39287 0.819968 0.137162 1.39105 0.834195 0.124755 
1.38958 0.845827 0.114593 1.40559 0.796219 0.148191 1.41158 0.790229 0.148191 
1.40397 0.807997 0.138033 1.4016 0.825195 0.123205 1.41633 0.78548 0.148191 
1.41531 0.792357 0.142333 1.41228 0.812862 0.124858 1.42676 0.775048 0.148191 
1.42831 0.7735 0.148191 1.4233 0.796886 0.129814 1.42006 0.817386 0.112554 
1.4369 0.764905 0.148191 1.43484 0.777066 0.138094 1.43077 0.801102 0.118128 
1.44681 0.755003 0.148191 1.44798 0.75383 0.148191 1.44211 0.781001 0.126889 
1.4565 0.745308 0.148191 1.45424 0.757059 0.138701 1.44893 0.784668 0.116402 
1.46602 0.735785 0.148191 1.47068 0.731126 0.148191 1.46097 0.760501 0.128529 
1.47539 0.726418 0.148191 1.47402 0.732739 0.143241 1.46731 0.763715 0.118975 
1.48466 0.717153 0.148191 1.48038 0.73578 0.13384 1.49382 0.707985 0.148191 
1.49628 0.705529 0.148191 1.4864 0.738631 0.124969 1.50292 0.698893 0.148191 
1.50072 0.707505 0.141775 1.4921 0.741304 0.116596 1.51197 0.689838 0.148191 
1.50655 0.71007 0.13338 1.52101 0.680799 0.148191 1.52433 0.677481 0.148191 
1.51209 0.712486 0.125424 1.53003 0.671776 0.148191 1.52792 0.67895 0.14313 
1.51737 0.714763 0.117867 1.53908 0.662728 0.148191 1.5334 0.68117 0.13543 
1.37556 0.861938 0.112505 1.38459 0.852901 0.112505 1.37822 0.859273 0.112505 
1.37957 0.857928 0.112505 1.37775 0.863304 0.108946 1.39868 0.838819 0.112505 
1.38928 0.848217 0.112505 1.39087 0.846621 0.112505 1.38839 0.855247 0.106363 
1.38744 0.862818 0.0997421 1.38668 0.868865 0.094455 1.39991 0.837585 0.112505 
1.4083 0.829192 0.112505 1.39966 0.839415 0.110925 1.39807 0.851036 0.100894 
1.3968 0.860441 0.092759 1.39577 0.867994 0.0862361 1.39496 0.874024 0.081016 
1.41015 0.827347 0.112505 1.40975 0.830054 0.110196 1.40767 0.844263 0.098067 
1.40597 0.855868 0.0881621 1.4046 0.865256 0.080144 1.42005 0.817444 0.112505 
1.42009 0.817404 0.112505 1.41735 0.834567 0.098083 1.41512 0.84876 0.08612 
1.4133 0.860346 0.076354 1.42963 0.807868 0.112505 1.43437 0.80312 0.112505 
1.42731 0.821589 0.101101 1.42442 0.838753 0.086827 1.43894 0.798557 0.112505 
1.43777 0.805022 0.107208 1.43408 0.82549 0.09043 1.431 0.842631 0.076369 
1.448 0.789494 0.112505 1.45147 0.786024 0.112505 1.44431 0.808667 0.0970231 
1.44039 0.829108 0.080502 1.45685 0.780644 0.112505 1.45533 0.788083 0.106587 
1.45044 0.812052 0.087508 1.46552 0.771975 0.112505 1.47162 0.765877 0.112505 
1.46134 0.791263 0.0973971 1.45616 0.815195 0.0786451 1.47404 0.763458 0.112505 
1.47329 0.766717 0.109993 1.46698 0.794223 0.088797 1.48242 0.755078 0.112505 
1.47892 0.769521 0.101559 1.47228 0.796978 0.080742 1.4907 0.746795 0.112505 
1.49489 0.742601 0.112505 1.48424 0.77214 0.0936199 1.4989 0.738597 0.112505 
1.4975 0.74381 0.10869 1.48925 0.774586 0.0861641 1.50704 0.73046 0.112505 
1.50262 0.746161 0.101219 1.49398 0.776871 0.0791489 1.51513 0.722361 0.112505 
1.52113 0.716367 0.112505 1.50748 0.748368 0.094152 1.52321 0.714288 0.112505 
1.5224 0.716909 0.110691 1.51208 0.75044 0.0874801 1.40229 0.872041 0.075668 
1.39826 0.876077 0.075668 1.40383 0.870497 0.075668 1.40737 0.866963 0.075668 
1.4035 0.872791 0.0737091 1.40263 0.878802 0.0685681 1.42164 0.852691 0.075668 
1.41317 0.86116 0.075668 1.41373 0.860606 0.075668 1.41183 0.869713 0.0684571 
1.41066 0.877228 0.062112 1.40972 0.883221 0.0570591 1.42216 0.852176 0.075668 
1.42203 0.852925 0.075045 1.42009 0.864489 0.065421 1.41852 0.873834 0.057646 
1.41727 0.881328 0.0514021 1.41627 0.887301 0.046429 1.43085 0.843486 0.075668 
1.43144 0.84289 0.075668 1.42845 0.856779 0.0647711 1.42638 0.868318 0.055302 
1.42471 0.87764 0.04765 1.42338 0.885111 0.041509 1.43924 0.835088 0.075668 
1.44347 0.830864 0.075668 1.43711 0.846221 0.066669 1.43441 0.860341 0.055249 
1.4322 0.871853 0.0459471 1.43043 0.88115 0.03842 1.4474 0.826932 0.075668 
1.44627 0.832462 0.071268 1.44279 0.849542 0.057668 1.43992 0.863631 0.0464491 
1.45534 0.818995 0.075668 1.45809 0.816245 0.075668 1.45175 0.835568 0.062682 
1.44807 0.852612 0.049318 1.44503 0.866666 0.038304 1.46308 0.811251 0.075668 
1.46151 0.818112 0.0703781 1.45685 0.838443 0.054707 1.45296 0.855447 0.041593 
1.47066 0.803672 0.075668 1.47563 0.798705 0.075668 1.46651 0.820819 0.0626709 
1.46161 0.841104 0.0472861 1.47809 0.79624 0.075668 1.47725 0.799542 0.073208 
1.47119 0.82333 0.0554801 1.46604 0.843565 0.040395 1.48541 0.788926 0.075668 
1.48192 0.801929 0.066151 1.47556 0.82566 0.0487801 1.49262 0.781714 0.075668 
1.49634 0.777997 0.075668 1.48631 0.80415 0.05954 1.47966 0.827821 0.042519 
1.49976 0.774576 0.075668 1.49845 0.779007 0.072543 1.49044 0.806218 0.053342 
1.50683 0.767506 0.075668 1.50267 0.781004 0.066326 1.49432 0.808144 0.047536 
1.42144 0.890522 0.0380369 1.42262 0.889344 0.0380369 1.42552 0.886439 0.0380369 
1.42231 0.891064 0.036626 1.43713 0.874835 0.0380369 1.43034 0.881623 0.0380369 
1.43067 0.881296 0.0380369 1.42901 0.888598 0.032392 1.42788 0.894529 0.027591 
1.43778 0.874185 0.0380369 1.43759 0.875114 0.037296 1.4357 0.884383 0.0299169 
1.43419 0.891808 0.024002 1.433 0.897718 0.019282 1.44496 0.867007 0.0380369 
1.4452 0.866765 0.0380369 1.44256 0.878118 0.0293221 1.44056 0.88736 0.0220801 
1.43897 0.89476 0.01627 1.4377 0.900648 0.011652 1.45191 0.860055 0.0380369 
1.45522 0.856746 0.0380369 1.44976 0.869466 0.0307741 1.44715 0.880885 0.021965 
1.44504 0.890097 0.014863 1.44336 0.897472 0.00916803 1.44202 0.903338 0.00464195 
1.45866 0.853302 0.0380369 1.45751 0.858065 0.034425 1.45413 0.872045 0.023825 
1.45138 0.883431 0.015189 1.44916 0.892613 0.00822705 1.44739 0.899962 0.00264805 
1.46523 0.846729 0.0380369 1.46756 0.844404 0.0380369 1.46173 0.860482 0.027788 
1.45818 0.874421 0.0173991 1.45529 0.885771 0.00893909 1.45296 0.894924 0.00211602 
1.47164 0.840328 0.0380369 1.47016 0.845842 0.033998 1.46564 0.862711 0.0216491 
1.46192 0.876609 0.011471 1.45889 0.887923 0.00318706 1.47791 0.834057 0.0380369 
1.4826 0.829361 0.0380369 1.474 0.847948 0.028052 1.46927 0.864768 0.015962 
1.46537 0.878623 0.00600696 1.48405 0.827909 0.0380369 1.48349 0.829826 0.036684 
1.47758 0.849895 0.0225251 1.47264 0.866665 0.010695 1.46857 0.880475 0.000955044 
1.49009 0.82187 0.0380369 1.48707 0.831686 0.031244 1.48091 0.851696 0.0173941 
1.47576 0.868414 0.00582606 1.44488 0.905121 -8.11114e-08 1.44655 0.903452 -8.11114e-08 
1.44903 0.900973 -8.11114e-08 1.44598 0.905807 -0.00178695 1.45223 0.897766 -8.11114e-08 
1.45428 0.895725 -8.11114e-08 1.45109 0.902247 -0.00333697 1.44961 0.908069 -0.00767899 
1.45772 0.892281 -8.11114e-08 1.46089 0.889115 -8.11114e-08 1.45644 0.897044 -0.00348395 
1.45449 0.904341 -0.0088309 1.45294 0.910141 -0.013081 1.46302 0.886979 -8.11114e-08 
1.4622 0.8899 -0.00210005 1.45965 0.89899 -0.00863999 1.45761 0.90626 -0.01387 
1.45598 0.912038 -0.0180179 1.46817 0.881829 -8.11114e-08 1.46918 0.880824 -8.11114e-08 
1.46526 0.891715 -0.006975 1.46259 0.900773 -0.0133629 1.46046 0.908017 -0.0184769 
1.45877 0.913773 -0.022543 1.47318 0.876824 -8.11114e-08 1.47153 0.88218 -0.00370991 
1.46808 0.893381 -0.011461 1.4653 0.902408 -0.0177079 1.46308 0.909625 -0.022705 
1.46131 0.915359 -0.026669 
POLYGONS 636 1905
OFFSETS vtktypeint64
0 3 6 9 12 15 18 21 24 
27 30 33 36 39 42 45 48 51 
54 57 60 63 66 69 72 75 78 
81 84 87 90 93 96 99 102 105 
108 111 114 117 120 123 126 129 132 
135 138 141 144 147 150 153 156 159 
162 165 168 171 174 177 180 183 186 
189 192 195 198 201 204 207 210 213 
216 219 222 225 228 231 234 237 240 
243 246 249 252 255 258 261 264 267 
270 273 276 279 282 285 288 291 294 
297 300 303 306 309 312 315 318 321 
324 327 330 333 336 339 342 345 348 
351 354 357 360 363 366 369 372 375 
378 381 384 387 390 393 396 399 402 
405 408 411 414 417 420 423 426 429 
432 435 438 441 444 447 450 453 456 
459 462 465 468 471 474 477 480 483 
486 489 492 495 498 501 504 507 510 
513 516 519 522 525 528 531 534 537 
540 543 546 549 552 555 558 561 564 
567 570 573 576 579 582 585 588 591 
594 597 600 603 606 609 612 615 618 
621 624 627 630 633 636 639 642 645 
648 651 654 657 660 663 666 669 672 
675 678 681 684 687 690 693 696 699 
702 705 708 711 714 717 720 723 726 
729 732 735 738 741 744 747 750 753 
756 759 762 765 768 771 774 777 780 
783 786 789 792 795 798 801 804 807 
810 813 816 819 822 825 828 831 834 
837 840 843 846 849 852 855 858 861 
864 867 870 873 876 879 882 885 888 
891 894 897 900 903 906 909 912 915 
918 921 924 927 930 933 936 939 942 
945 948 951 954 957 960 963 966 969 
972 975 978 981 984 987 990 993 996 
999 1002 1005 1008 1011 1014 1017 1020 1023 
1026 1029 1032 1035 1038 1041 1044 1047 1050 
1053 1056 1059 1062 1065 1068 1071 1074 1077 
1080 1083 1086 1089 1092 1095 1098 1101 1104 
1107 1110 1113 1116 1119 1122 1125 1128 1131 
1134 1137 1140 1143 1146 1149 1152 1155 1158 
1161 1164 1167 1170 1173 1176 1179 1182 1185 
1188 1191 1194 1197 1200 1203 1206 1209 1212 
1215 1218 1221 1224 1227 1230 1233 1236 1239 
1242 1245 1248 1251 1254 1257 1260 1263 1266 
1269 1272 1275 1278 1281 1284 1287 1290 1293 
1296 1299 1302 1305 1308 1311 1314 1317 1320 
1323 1326 1329 1332 1335 1338 1341 1344 1347 
1350 1353 1356 1359 1362 1365 1368 1371 1374 
1377 1380 1383 1386 1389 1392 1395 1398 1401 
1404 1407 1410 1413 1416 1419 1422 1425 1428 
1431 1434 1437 1440 1443 1446 1449 1452 1455 
1458 1461 1464 1467 1470 1473 1476 1479 1482 
1485 1488 1491 1494 1497 1500 1503 1506 1509 
1512 1515 1518 1521 1524 1527 1530 1533 1536 
1539 1542 1545 1548 1551 1554 1557 1560 1563 
1566 1569 1572 1575 1578 1581 1584 1587 1590 
1593 1596 1599 1602 1605 1608 1611 1614 1617 
1620 1623 1626 1629 1632 1635 1638 1641 1644 
1647 1650 1653 1656 1659 1662 1665 1668 1671 
1674 1677 1680 1683 1686 1689 1692 1695 1698 
1701 1704 1707 1710 1713 1716 1719 1722 1725 
1728 1731 1734 1737 1740 1743 1746 1749 1752 
1755 1758 1761 1764 1767 1770 1773 1776 1779 
1782 1785 1788 1791 1794 1797 1800 1803 1806 
1809 1812 1815 1818 1821 1824 1827 1830 1833 
1836 1839 1842 1845 1848 1851 1854 1857 1860 
1863 1866 1869 1872 1875 1878 1881 1884 1887 
1890 1893 1896 1899 1902 1905 
CONNECTIVITY vtktypeint64
0 5 3 1 8 6 1 2 9 
8 1 9 2 4 10 9 2 10 
4 3 5 4 5 10 10 5 11 
7 14 12 7 6 8 7 8 14 
14 8 15 9 16 8 16 15 8 
73 10 70 73 16 10 16 9 10 
11 70 10 71 70 11 13 19 17 
13 12 14 13 14 19 19 14 20 
77 15 72 77 20 15 20 14 15 
16 72 15 74 72 16 73 74 16 
18 23 21 18 17 19 18 19 23 
23 19 24 83 20 78 83 24 20 
24 19 20 77 78 20 22 27 25 
22 21 23 22 23 27 27 23 28 
89 24 84 89 28 24 28 23 24 
83 84 24 26 30 29 26 25 27 
26 27 30 30 27 31 94 28 90 
94 31 28 31 27 28 89 90 28 
30 34 32 29 30 32 98 31 95 
98 34 31 34 30 31 94 95 31 
33 36 35 33 32 34 33 34 36 
36 34 37 101 34 98 37 34 101 
36 40 38 35 36 38 105 37 102 
105 40 37 40 36 37 101 102 37 
39 42 41 39 38 40 39 40 42 
42 40 43 108 40 105 43 40 108 
42 46 44 41 42 44 111 43 109 
111 46 43 46 42 43 108 109 43 
45 48 47 45 44 46 45 46 48 
48 46 49 114 46 111 49 46 114 
48 51 50 47 48 50 117 49 115 
117 51 49 51 48 49 114 115 49 
51 54 52 50 51 52 120 51 117 
54 51 120 53 56 55 53 52 54 
53 54 56 56 54 57 122 54 120 
57 54 122 56 59 58 55 56 58 
125 57 123 125 59 57 59 56 57 
122 123 57 59 62 60 58 59 60 
128 59 125 62 59 128 61 64 63 
61 60 62 61 62 64 64 62 65 
130 62 128 65 62 130 64 67 66 
63 64 66 133 65 131 133 67 65 
67 64 65 130 131 65 67 69 68 
66 67 68 136 67 133 69 67 136 
70 75 73 70 71 76 75 70 76 
72 79 77 72 74 80 79 72 80 
74 73 75 74 75 80 80 75 81 
76 82 75 82 81 75 78 85 83 
78 77 79 78 79 85 85 79 86 
80 87 79 87 86 79 81 88 80 
88 87 80 140 82 138 140 88 82 
88 81 82 84 91 89 84 83 85 
84 85 91 91 85 92 86 93 85 
93 92 85 144 87 139 144 93 87 
93 86 87 88 139 87 141 139 88 
140 141 88 90 96 94 90 89 91 
90 91 96 96 91 97 149 92 143 
149 97 92 97 91 92 93 143 92 
145 143 93 144 145 93 95 99 98 
95 94 96 95 96 99 99 96 100 
156 97 150 156 100 97 100 96 97 
149 150 97 99 103 101 98 99 101 
100 104 99 104 103 99 161 100 156 
104 100 161 102 106 105 102 101 103 
102 103 106 106 103 107 166 104 162 
166 107 104 107 103 104 161 162 104 
106 110 108 105 106 108 170 107 167 
170 110 107 110 106 107 166 167 107 
109 112 111 109 108 110 109 110 112 
112 110 113 174 110 170 113 110 174 
112 116 114 111 112 114 178 113 175 
178 116 113 116 112 113 174 175 113 
115 118 117 115 114 116 115 116 118 
118 116 119 181 116 178 119 116 181 
118 121 120 117 118 120 185 119 182 
185 121 119 121 118 119 181 182 119 
121 124 122 120 121 122 188 121 185 
124 121 188 123 126 125 123 122 124 
123 124 126 126 124 127 191 124 188 
127 124 191 126 129 128 125 126 128 
194 127 192 194 129 127 129 126 127 
191 192 127 129 132 130 128 129 130 
197 129 194 132 129 197 131 134 133 
131 130 132 131 132 134 134 132 135 
200 132 197 135 132 200 134 137 136 
133 134 136 203 135 201 203 137 135 
137 134 135 200 201 135 138 142 140 
139 146 144 139 141 147 146 139 147 
141 140 142 141 142 147 147 142 148 
143 151 149 143 145 152 151 143 152 
145 144 146 145 146 152 152 146 153 
147 154 146 154 153 146 148 155 147 
155 154 147 150 157 156 150 149 151 
150 151 157 157 151 158 152 159 151 
159 158 151 153 160 152 160 159 152 
208 154 206 208 160 154 160 153 154 
155 206 154 207 206 155 157 163 161 
156 157 161 158 164 157 164 163 157 
159 165 158 165 164 158 213 160 209 
213 165 160 165 159 160 208 209 160 
162 168 166 162 161 163 162 163 168 
168 163 169 218 164 212 218 169 164 
169 163 164 165 212 164 214 212 165 
213 214 165 167 171 170 167 166 168 
167 168 171 171 168 172 169 173 168 
173 172 168 224 169 218 173 169 224 
171 176 174 170 171 174 172 177 171 
177 176 171 230 173 225 230 177 173 
177 172 173 224 225 173 175 179 178 
175 174 176 175 176 179 179 176 180 
236 177 231 236 180 177 180 176 177 
230 231 177 179 183 181 178 179 181 
180 184 179 184 183 179 240 180 236 
184 180 240 182 186 185 182 181 183 
182 183 186 186 183 187 245 184 241 
245 187 184 187 183 184 240 241 184 
186 189 188 185 186 188 187 190 186 
190 189 186 249 187 245 190 187 249 
189 193 191 188 189 191 253 190 250 
253 193 190 193 189 190 249 250 190 
192 195 194 192 191 193 192 193 195 
195 193 196 257 193 253 196 193 257 
195 198 197 194 195 197 196 199 195 
199 198 195 260 196 257 199 196 260 
198 202 200 197 198 200 264 199 261 
264 202 199 202 198 199 260 261 199 
201 204 203 201 200 202 201 202 204 
204 202 205 267 202 264 205 202 267 
206 210 208 206 207 211 210 206 211 
209 215 213 209 208 210 209 210 215 
215 210 216 211 217 210 217 216 210 
212 219 218 212 214 220 219 212 220 
214 213 215 214 215 220 220 215 221 
216 222 215 222 221 215 217 223 216 
223 222 216 219 226 224 218 219 224 
220 227 219 227 226 219 221 228 220 
228 227 220 222 229 221 229 228 221 
271 223 270 271 229 223 229 222 223 
225 232 230 225 224 226 225 226 232 
232 226 233 227 234 226 234 233 226 
228 235 227 235 234 227 275 229 272 
275 235 229 235 228 229 271 272 229 
231 237 236 231 230 232 231 232 237 
237 232 238 233 239 232 239 238 232 
279 234 274 279 239 234 239 233 234 
235 274 234 276 274 235 275 276 235 
237 242 240 236 237 240 238 243 237 
243 242 237 239 244 238 244 243 238 
284 239 279 244 239 284 241 246 245 
241 240 242 241 242 246 246 242 247 
243 248 242 248 247 242 290 244 285 
290 248 244 248 243 244 284 285 244 
246 251 249 245 246 249 247 252 246 
252 251 246 297 248 291 297 252 248 
252 247 248 290 291 248 250 254 253 
250 249 251 250 251 254 254 251 255 
252 256 251 256 255 251 303 252 297 
256 252 303 254 258 257 253 254 257 
255 259 254 259 258 254 309 256 304 
309 259 256 259 255 256 303 304 256 
258 262 260 257 258 260 259 263 258 
263 262 258 314 259 309 263 259 314 
261 265 264 261 260 262 261 262 265 
265 262 266 319 263 315 319 266 263 
266 262 263 314 315 263 265 268 267 
264 265 267 266 269 265 269 268 265 
324 266 319 269 266 324 270 273 271 
272 277 275 272 271 273 272 273 277 
277 273 278 274 280 279 274 276 281 
280 274 281 276 275 277 276 277 281 
281 277 282 278 283 277 283 282 277 
280 286 284 279 280 284 281 287 280 
287 286 280 282 288 281 288 287 281 
283 289 282 289 288 282 285 292 290 
285 284 286 285 286 292 292 286 293 
287 294 286 294 293 286 288 295 287 
295 294 287 289 296 288 296 295 288 
291 298 297 291 290 292 291 292 298 
298 292 299 293 300 292 300 299 292 
294 301 293 301 300 293 295 302 294 
302 301 294 329 296 328 329 302 296 
302 295 296 298 305 303 297 298 303 
299 306 298 306 305 298 300 307 299 
307 306 299 301 308 300 308 307 300 
332 302 330 332 308 302 308 301 302 
329 330 302 304 310 309 304 303 305 
304 305 310 310 305 311 306 312 305 
312 311 305 307 313 306 313 312 306 
336 308 333 336 313 308 313 307 308 
332 333 308 310 316 314 309 310 314 
311 317 310 317 316 310 312 318 311 
318 317 311 341 313 337 341 318 313 
318 312 313 336 337 313 315 320 319 
315 314 316 315 316 320 320 316 321 
317 322 316 322 321 316 318 323 317 
323 322 317 346 318 341 323 318 346 
320 325 324 319 320 324 321 326 320 
326 325 320 322 327 321 327 326 321 
352 323 347 352 327 323 327 322 323 
346 347 323 328 331 329 330 334 332 
330 329 331 330 331 334 334 331 335 
333 338 336 333 332 334 333 334 338 
338 334 339 335 340 334 340 339 334 
337 342 341 337 336 338 337 338 342 
342 338 343 339 344 338 344 343 338 
340 345 339 345 344 339 342 348 346 
341 342 346 343 349 342 349 348 342 
344 350 343 350 349 343 345 351 344 
351 350 344 347 353 352 347 346 348 
347 348 353 353 348 354 349 355 348 
355 354 348 350 356 349 356 355 349 
351 357 350 357 356 350 
POINT_DATA 358
FIELD FieldData 5
pressure 1 358 float
0.410854 0.439994 0.437571 0.42889 0.433186 0.418231 0.440128 0.440827 0.439753 
0.437894 0.436996 0.434599 0.44042 0.440299 0.440102 0.439917 0.440607 0.440127 
0.440129 0.43941 0.439478 0.438862 0.438723 0.43941 0.438611 0.437659 0.43718 
0.438614 0.438967 0.436916 0.437274 0.438486 0.43646 0.436393 0.437472 0.436469 
0.43662 0.437705 0.43664 0.436714 0.436943 0.436802 0.436892 0.43727 0.436871 
0.436872 0.437138 0.43687 0.436889 0.437342 0.436851 0.43694 0.436857 0.436877 
0.436969 0.437012 0.436887 0.436971 0.437315 0.436902 0.437566 0.437698 0.436857 
0.437767 0.437665 0.436852 0.437674 0.437453 0.437633 0.437394 0.440362 0.437893 
0.440544 0.44066 0.44094 0.440625 0.440309 0.440341 0.439588 0.440663 0.441625 
0.440528 0.440023 0.439 0.438532 0.439772 0.441055 0.441366 0.440256 0.43884 
0.438904 0.438387 0.440218 0.441065 0.438597 0.438458 0.438577 0.43888 0.438139 
0.438387 0.438338 0.437768 0.437738 0.438295 0.43837 0.437436 0.437855 0.438324 
0.437311 0.437313 0.437969 0.437373 0.437561 0.43813 0.437403 0.437419 0.43773 
0.437353 0.437477 0.437839 0.437203 0.437542 0.437019 0.436974 0.437527 0.436929 
0.436941 0.437464 0.436846 0.436821 0.436839 0.436801 0.436731 0.436838 0.436687 
0.4365 0.437043 0.436678 0.439796 0.441013 0.440088 0.440224 0.439707 0.44053 
0.441023 0.441015 0.440769 0.440029 0.439472 0.440368 0.439401 0.44057 0.440739 
0.440333 0.440264 0.440264 0.439313 0.43952 0.440836 0.44057 0.44045 0.438375 
0.438371 0.440102 0.441072 0.440724 0.438424 0.438413 0.438726 0.440571 0.438337 
0.438519 0.439152 0.440957 0.438232 0.438157 0.438742 0.439561 0.438035 0.438184 
0.438964 0.437959 0.437898 0.438283 0.439213 0.437862 0.437899 0.438349 0.437684 
0.437831 0.438386 0.437513 0.437402 0.437743 0.437233 0.437303 0.437606 0.436939 
0.437114 0.437477 0.436577 0.43648 0.436829 0.43648 0.436463 0.436741 0.440745 
0.440545 0.440735 0.440618 0.440836 0.440916 0.441283 0.440746 0.440745 0.4409 
0.4413 0.441198 0.441262 0.441296 0.441078 0.441318 0.441506 0.441205 0.440996 
0.440979 0.441506 0.441486 0.441602 0.441471 0.440152 0.439777 0.441192 0.441738 
0.441804 0.441741 0.439679 0.439934 0.441334 0.441938 0.439397 0.439262 0.440152 
0.441365 0.442116 0.439017 0.439271 0.440314 0.441389 0.438668 0.438444 0.439322 
0.44041 0.438355 0.438432 0.439314 0.440393 0.437992 0.438315 0.439236 0.437628 
0.437368 0.438261 0.439205 0.43718 0.437236 0.43806 0.436973 0.437142 0.438068 
0.4411 0.4412 0.441428 0.441085 0.442008 0.44172 0.441742 0.441351 0.441395 
0.442022 0.442019 0.441685 0.441324 0.441671 0.442117 0.442119 0.442027 0.441651 
0.441404 0.441931 0.44164 0.441334 0.442072 0.441965 0.441639 0.441547 0.442157 
0.441022 0.441228 0.441983 0.441849 0.44166 0.441708 0.44054 0.440381 0.441093 
0.44182 0.441712 0.441728 0.440017 0.440301 0.440852 0.441606 0.44158 0.439499 
0.439048 0.440127 0.440693 0.441409 0.438912 0.438986 0.439834 0.440396 0.441151 
0.438585 0.438941 0.439733 0.440321 0.442249 0.442053 0.441779 0.442248 0.441785 
0.441748 0.441797 0.442186 0.441676 0.441515 0.441704 0.441712 0.44198 0.441452 
0.441427 0.441642 0.441657 0.441782 0.441175 0.441125 0.441221 0.441477 0.441389 
0.441436 0.440734 0.440951 0.441097 0.441475 0.441404 0.441349 
velocity_u 1 358 float
0.776675 0.759888 0.757328 0.760773 0.757035 0.770243 0.759817 0.760244 0.759886 
0.755945 0.7545 0.757062 0.758052 0.7575 0.760714 0.758963 0.753849 0.755665 
0.755504 0.758175 0.760974 0.758005 0.758375 0.755598 0.758812 0.759227 0.759794 
0.758373 0.755666 0.75965 0.75979 0.758352 0.759193 0.759043 0.759746 0.759259 
0.758958 0.759667 0.759397 0.759416 0.758795 0.759472 0.759216 0.758634 0.759632 
0.759781 0.758965 0.759758 0.759756 0.758765 0.759696 0.759705 0.759654 0.759616 
0.759647 0.759457 0.759596 0.759624 0.759063 0.759529 0.758714 0.75853 0.759531 
0.758547 0.758558 0.759474 0.758773 0.758751 0.758949 0.758812 0.753401 0.756092 
0.757973 0.753405 0.7537 0.75325 0.755752 0.758628 0.76089 0.757739 0.753078 
0.753182 0.754373 0.759348 0.758903 0.760945 0.756747 0.753035 0.752817 0.756556 
0.755643 0.75953 0.760783 0.756138 0.757302 0.758301 0.755968 0.759775 0.758703 
0.758224 0.756365 0.75954 0.759651 0.758066 0.756631 0.759244 0.759541 0.757891 
0.758685 0.758617 0.759397 0.758672 0.758466 0.75923 0.758679 0.7587 0.758317 
0.758863 0.758685 0.758221 0.759174 0.75867 0.759524 0.759601 0.75873 0.75957 
0.759646 0.758869 0.759583 0.759779 0.759496 0.759518 0.759884 0.759473 0.759628 
0.760102 0.759251 0.759638 0.753431 0.752963 0.752932 0.752749 0.753229 0.7605 
0.75533 0.756096 0.753028 0.752628 0.753291 0.760358 0.759923 0.760408 0.755832 
0.752973 0.752304 0.753586 0.759376 0.759857 0.759633 0.75542 0.752593 0.756642 
0.756631 0.759485 0.758954 0.754842 0.757464 0.757773 0.756393 0.759103 0.758157 
0.757644 0.756188 0.758815 0.758895 0.759159 0.757387 0.755981 0.758865 0.759059 
0.757135 0.75844 0.758143 0.758946 0.756882 0.758204 0.758138 0.758848 0.758484 
0.758225 0.758804 0.758786 0.75894 0.758306 0.759146 0.759003 0.758434 0.759504 
0.759076 0.758568 0.759958 0.760152 0.759312 0.760123 0.760157 0.759377 0.752075 
0.753928 0.752206 0.752405 0.752059 0.754651 0.758378 0.754604 0.754804 0.752042 
0.752309 0.755868 0.75837 0.758347 0.754065 0.751577 0.752885 0.756918 0.758733 
0.758793 0.75774 0.753315 0.751317 0.753634 0.756868 0.755875 0.758863 0.757187 
0.752674 0.751245 0.756198 0.755946 0.758969 0.756749 0.756676 0.756818 0.756098 
0.759067 0.756236 0.757377 0.756791 0.756283 0.759129 0.758219 0.758766 0.756756 
0.756509 0.758713 0.758763 0.756798 0.756738 0.758641 0.758834 0.75692 0.758619 
0.758632 0.758867 0.756997 0.758795 0.758701 0.759001 0.759093 0.758834 0.759037 
0.757649 0.756568 0.753933 0.757749 0.752111 0.751441 0.751252 0.754311 0.758136 
0.752438 0.752077 0.751428 0.754872 0.758386 0.756103 0.756226 0.751956 0.75161 
0.755353 0.758609 0.758133 0.759148 0.756057 0.751794 0.751851 0.755777 0.758789 
0.758442 0.759107 0.755838 0.751743 0.752143 0.756135 0.757218 0.756821 0.759057 
0.755717 0.751817 0.752338 0.756938 0.756867 0.759029 0.755706 0.751776 0.757071 
0.757146 0.757042 0.759041 0.755676 0.757343 0.757186 0.757167 0.759076 0.755696 
0.75798 0.75716 0.757431 0.759066 0.758883 0.757787 0.756294 0.758959 0.753952 
0.752476 0.756626 0.759205 0.752246 0.751909 0.752826 0.757136 0.759416 0.75295 
0.752 0.753237 0.757698 0.759633 0.755263 0.755684 0.752126 0.753764 0.758096 
0.759752 0.756946 0.755651 0.752167 0.754446 0.758846 0.759882 
velocity_v 1 358 float
0.22655 0.239917 0.239326 0.231261 0.231632 0.231384 0.239932 0.239352 0.240203 
0.239678 0.23649 0.237942 0.237563 0.237036 0.239852 0.240196 0.237755 0.235374 
0.235236 0.237603 0.240115 0.235344 0.235299 0.235569 0.238026 0.235409 0.235395 
0.235573 0.235977 0.23527 0.235439 0.235972 0.235067 0.235008 0.235613 0.235149 
0.235102 0.235816 0.235368 0.235463 0.235237 0.235499 0.235526 0.235368 0.235532 
0.235553 0.235583 0.235519 0.235559 0.235621 0.235386 0.23559 0.235292 0.235262 
0.235587 0.235231 0.235289 0.235584 0.235169 0.23532 0.23514 0.235133 0.235377 
0.235135 0.235176 0.235419 0.235091 0.235221 0.235052 0.235325 0.235814 0.236615 
0.239416 0.236168 0.237523 0.235686 0.236023 0.23951 0.23998 0.239218 0.236708 
0.236049 0.236784 0.238558 0.238096 0.239782 0.238073 0.236521 0.236409 0.236604 
0.236064 0.238431 0.23919 0.237488 0.236186 0.236188 0.236369 0.238571 0.236127 
0.236265 0.236652 0.235888 0.23585 0.236433 0.236747 0.235669 0.235985 0.23656 
0.235417 0.23538 0.236165 0.235476 0.235428 0.2363 0.235597 0.235639 0.235559 
0.235644 0.235667 0.23569 0.235613 0.23569 0.235588 0.235568 0.235709 0.235477 
0.23554 0.235727 0.235442 0.235545 0.235429 0.235436 0.235526 0.235419 0.235454 
0.235569 0.235426 0.235473 0.236796 0.236639 0.236544 0.236437 0.236867 0.238732 
0.237313 0.237476 0.236866 0.237074 0.237217 0.238662 0.238484 0.238677 0.237551 
0.237246 0.237276 0.237231 0.23818 0.238462 0.238594 0.237742 0.237325 0.236752 
0.236747 0.2384 0.238661 0.237871 0.236614 0.236591 0.236845 0.238364 0.236517 
0.236703 0.236879 0.238421 0.236385 0.236383 0.236889 0.236884 0.236247 0.23655 
0.237008 0.235961 0.235749 0.236739 0.237038 0.235761 0.235787 0.236894 0.235792 
0.235932 0.236972 0.23576 0.235746 0.236018 0.235725 0.235768 0.2361 0.235613 
0.235722 0.236131 0.235608 0.23551 0.235799 0.235482 0.235491 0.235732 0.237196 
0.237315 0.23724 0.237301 0.237155 0.237442 0.238798 0.23782 0.237875 0.237115 
0.237022 0.23798 0.238781 0.238802 0.237735 0.236899 0.23728 0.23878 0.238449 
0.238428 0.238831 0.237581 0.236884 0.237885 0.237461 0.236873 0.238527 0.238817 
0.237473 0.237137 0.236917 0.236853 0.238634 0.238791 0.237016 0.237076 0.236879 
0.238723 0.238727 0.237069 0.237087 0.236899 0.238776 0.237011 0.237002 0.237009 
0.236957 0.236887 0.23699 0.236906 0.237023 0.236558 0.236927 0.236854 0.236274 
0.23615 0.236864 0.236747 0.236107 0.236144 0.236822 0.235955 0.236074 0.236737 
0.239448 0.239079 0.238115 0.239554 0.237454 0.237222 0.237152 0.238456 0.239978 
0.237562 0.237461 0.237485 0.23896 0.240273 0.238692 0.238727 0.237632 0.237857 
0.239322 0.240497 0.238769 0.238804 0.23877 0.237807 0.238181 0.239584 0.240715 
0.238306 0.238827 0.238796 0.237996 0.238453 0.239811 0.237371 0.237042 0.238869 
0.238834 0.23817 0.238622 0.236993 0.237053 0.238912 0.238907 0.238289 0.23686 
0.236742 0.237122 0.238965 0.238934 0.236745 0.236743 0.237193 0.239007 0.239041 
0.236657 0.236624 0.23723 0.239022 0.240872 0.240476 0.239891 0.240918 0.239154 
0.238704 0.23999 0.241084 0.238563 0.238359 0.238824 0.240224 0.241323 0.23854 
0.238365 0.238899 0.240458 0.241521 0.238981 0.239017 0.238427 0.239109 0.24071 
0.241773 0.238951 0.238867 0.238221 0.239263 0.241052 0.241865 
velocity_w 1 358 float
-0.00327176 -0.00288333 -0.00323365 -0.00336967 -0.00338535 -0.0032185 -0.00296722 -0.0032001 -0.00280695 
-0.00299395 -0.00307026 -0.00302367 -0.00345103 -0.00352643 -0.00275869 -0.00259283 -0.00291682 -0.0033579 
-0.00335411 -0.00292716 -0.00238352 -0.0025573 -0.00241326 -0.00269608 -0.00247359 -0.00203039 -0.00178646 