# vtk DataFile Version 5.1
vtk output
ASCII
DATASET POLYDATA
POINTS 385 float
2.40873 0.441267 -0.5 2.40959 0.440407 -0.5 2.40573 0.441267 -0.497 
2.40908 0.437919 -0.497 2.40228 0.441267 -0.493548 2.39831 0.441267 -0.489579 
2.39375 0.441267 -0.485022 2.38955 0.441267 -0.480817 2.38853 0.441267 -0.479796 
2.38937 0.440426 -0.479796 2.38254 0.441267 -0.473812 2.3757 0.441267 -0.466971 
2.36927 0.441267 -0.460537 2.3679 0.441267 -0.459165 2.36902 0.440144 -0.459165 
2.35901 0.441267 -0.450279 2.34894 0.441267 -0.440207 2.34892 0.441267 -0.440188 
2.34894 0.441252 -0.440188 2.3375 0.441267 -0.428762 2.32855 0.441267 -0.419817 
2.3246 0.441267 -0.415865 2.3278 0.438068 -0.415865 2.41238 0.437615 -0.5 
2.40938 0.437621 -0.497 2.40902 0.437622 -0.496642 2.40592 0.437628 -0.493548 
2.4085 0.435051 -0.493548 2.40194 0.437636 -0.489579 2.39738 0.437646 -0.485022 
2.39214 0.437656 -0.479796 2.38878 0.437663 -0.476443 2.38614 0.437668 -0.473812 
2.38832 0.435494 -0.473812 2.37929 0.437682 -0.466971 2.37147 0.437697 -0.459165 
2.36848 0.437703 -0.456183 2.36256 0.437715 -0.450279 2.35245 0.437735 -0.440188 
2.34813 0.437743 -0.435873 2.34101 0.437757 -0.428762 2.32808 0.437781 -0.415865 
2.41654 0.43346 -0.5 2.41353 0.433473 -0.497 2.41006 0.433488 -0.493548 
2.40818 0.433496 -0.491676 2.40607 0.433505 -0.489579 2.40782 0.431757 -0.489579 
2.4015 0.433525 -0.485022 2.39625 0.433547 -0.479796 2.39024 0.433573 -0.473812 
2.38791 0.433583 -0.471493 2.38337 0.433602 -0.466971 2.38712 0.429854 -0.466971 
2.37553 0.433635 -0.459165 2.36759 0.433668 -0.451258 2.36661 0.433672 -0.450279 
2.36741 0.432867 -0.450279 2.35647 0.433714 -0.440188 2.34721 0.433752 -0.430962 
2.345 0.433761 -0.428762 2.3468 0.431961 -0.428762 2.33205 0.433814 -0.415865 
2.42126 0.428738 -0.5 2.42643 0.423573 -0.5 2.41824 0.428759 -0.497 
2.41476 0.428783 -0.493548 2.41077 0.428811 -0.489579 2.40722 0.428835 -0.486055 
2.40618 0.428842 -0.485022 2.40704 0.42798 -0.485022 2.40092 0.428878 -0.479796 
2.40615 0.423651 -0.479796 2.39489 0.428919 -0.473812 2.38801 0.428966 -0.466971 
2.38693 0.428973 -0.465903 2.38015 0.429018 -0.459165 2.3712 0.429078 -0.450279 
2.36658 0.429109 -0.445689 2.36104 0.429145 -0.440188 2.36558 0.424613 -0.440188 
2.34954 0.42922 -0.428762 2.34618 0.429242 -0.425422 2.33656 0.429304 -0.415865 
2.42662 0.423381 -0.5 2.42639 0.423383 -0.499773 2.42359 0.42341 -0.497 
2.42593 0.42107 -0.497 2.4201 0.423444 -0.493548 2.42536 0.418191 -0.493548 
2.4161 0.423483 -0.489579 2.41149 0.423527 -0.485022 2.40622 0.423578 -0.479796 
2.40613 0.423579 -0.479709 2.40018 0.423636 -0.473812 2.40512 0.41869 -0.473812 
2.39327 0.423702 -0.466971 2.38581 0.423773 -0.459583 2.38539 0.423777 -0.459165 
2.38574 0.423429 -0.459165 2.37642 0.423861 -0.450279 2.36623 0.423957 -0.440188 
2.36543 0.423965 -0.439395 2.3547 0.424064 -0.428762 2.345 0.424154 -0.419154 
2.34168 0.424184 -0.415865 2.34438 0.421481 -0.415865 2.43269 0.417307 -0.5 
2.42965 0.417347 -0.497 2.42616 0.417393 -0.493548 2.4252 0.417405 -0.492605 
2.42213 0.417444 -0.489579 2.4247 0.41488 -0.489579 2.41752 0.417503 -0.485022 
2.42395 0.411076 -0.485022 2.41222 0.417571 -0.479796 2.40616 0.417649 -0.473812 
2.40491 0.417665 -0.472575 2.39923 0.417737 -0.466971 2.40395 0.413025 -0.466971 
2.39133 0.417836 -0.459165 2.38455 0.417922 -0.452472 2.38233 0.41795 -0.450279 
2.38416 0.416119 -0.450279 2.37211 0.418076 -0.440188 2.36414 0.418175 -0.432315 
2.36054 0.418219 -0.428762 2.36349 0.415273 -0.428762 2.34749 0.418378 -0.415865 
2.43956 0.410437 -0.5 2.44341 0.406591 -0.5 2.43651 0.410487 -0.497 
2.44293 0.404072 -0.497 2.433 0.410545 -0.493548 2.42897 0.410611 -0.489579 
2.42433 0.410687 -0.485022 2.42387 0.410695 -0.484565 2.41902 0.410774 -0.479796 
2.42307 0.406724 -0.479796 2.41294 0.410872 -0.473812 2.40599 0.410985 -0.466971 
2.40353 0.411025 -0.464555 2.39805 0.411112 -0.459165 2.4026 0.406565 -0.459165 
2.38902 0.411256 -0.450279 2.38313 0.41135 -0.44448 2.37877 0.411418 -0.440188 
2.38237 0.40782 -0.440188 2.36716 0.411601 -0.428762 2.36268 0.411671 -0.424351 
2.35406 0.411804 -0.415865 2.36112 0.404744 -0.415865 2.44732 0.402679 -0.5 
2.44426 0.402742 -0.497 2.44268 0.402774 -0.495454 2.44073 0.402813 -0.493548 
2.44237 0.401177 -0.493548 2.43668 0.402895 -0.489579 2.44173 0.397853 -0.489579 
2.43203 0.402989 -0.485022 2.4267 0.403097 -0.479796 2.42236 0.403185 -0.475545 
2.42059 0.40322 -0.473812 2.42207 0.401743 -0.473812 2.41361 0.403359 -0.466971 
2.42092 0.39605 -0.466971 2.40565 0.403517 -0.459165 2.40198 0.40359 -0.45557 
2.39658 0.403696 -0.450279 2.40106 0.39922 -0.450279 2.38629 0.403897 -0.440188 
2.38154 0.40399 -0.43553 2.37464 0.404123 -0.428762 2.38032 0.398438 -0.428762 
2.36149 0.404376 -0.415865 2.45606 0.393939 -0.5 2.46053 0.389468 -0.5 
2.45299 0.394015 -0.497 2.46006 0.386939 -0.497 2.44945 0.394102 -0.493548 
2.44538 0.394202 -0.489579 2.44104 0.394309 -0.485349 2.4407 0.394317 -0.485022 
2.44099 0.394035 -0.485022 2.43535 0.394447 -0.479796 2.44014 0.38966 -0.479796 
2.42922 0.394595 -0.473812 2.42221 0.394765 -0.466971 2.42067 0.394802 -0.465472 
2.41421 0.394956 -0.459165 2.41961 0.389558 -0.459165 2.40511 0.395174 -0.450279 
2.40023 0.39529 -0.44552 2.39477 0.395418 -0.440188 2.3993 0.390887 -0.440188 
2.38307 0.395693 -0.428762 2.37974 0.395771 -0.425511 2.36987 0.395999 -0.415865 
2.378 0.387862 -0.415865 2.46838 0.381624 -0.5 2.47798 0.372019 -0.5 
2.46406 0.382936 -0.497 2.47752 0.369476 -0.497 2.45957 0.384303 -0.493873 
2.45924 0.384313 -0.493548 2.45952 0.38403 -0.493548 2.45515 0.384431 -0.489579 
2.45889 0.380689 -0.489579 2.45045 0.384567 -0.485022 2.45817 0.376853 -0.485022 
2.44507 0.384723 -0.479796 2.43921 0.384893 -0.474103 2.43891 0.384902 -0.473812 
2.43916 0.38465 -0.473812 2.43187 0.385103 -0.466971 2.43804 0.378932 -0.466971 
2.42383 0.385332 -0.459165 2.41878 0.385476 -0.454256 2.41469 0.385591 -0.450279 
2.4181 0.382176 -0.450279 2.40431 0.385883 -0.440188 2.39828 0.386052 -0.434332 
2.39255 0.38621 -0.428762 2.39731 0.381456 -0.428762 2.37929 0.386576 -0.415865 
2.4843 0.365701 -0.5 2.49591 0.354086 -0.5 2.48 0.367004 -0.497 
2.49547 0.35153 -0.497 2.47723 0.367842 -0.495072 2.47505 0.368502 -0.493548 
2.477 0.366552 -0.493548 2.46936 0.370219 -0.489579 2.47639 0.363191 -0.489579 
2.46283 0.372191 -0.485022 2.47569 0.359333 -0.485022 2.45759 0.373774 -0.481364 
2.45597 0.373829 -0.479796 2.45734 0.372455 -0.479796 2.44978 0.374037 -0.473812 
2.45639 0.36742 -0.473812 2.4427 0.374275 -0.466971 2.43716 0.374461 -0.461621 
2.43462 0.374545 -0.459165 2.43676 0.372409 -0.459165 2.42543 0.374848 -0.450279 
2.43529 0.364987 -0.450279 2.41666 0.375138 -0.441798 2.415 0.375192 -0.440188 
2.41639 0.373803 -0.440188 2.40319 0.375577 -0.428762 2.41443 0.364327 -0.428762 
2.39611 0.375807 -0.421917 2.38986 0.376007 -0.415865 2.39504 0.370825 -0.415865 
2.50175 0.348246 -0.5 2.51426 0.335742 -0.5 2.49746 0.349538 -0.497 
2.51382 0.333177 -0.497 2.49524 0.350207 -0.495447 2.49253 0.351022 -0.493548 
2.49496 0.348593 -0.493548 2.48685 0.352727 -0.489579 2.49436 0.345219 -0.489579 
2.48034 0.354683 -0.485022 2.49368 0.341345 -0.485022 2.47513 0.356248 -0.481378 
2.47287 0.356925 -0.479796 2.47489 0.354911 -0.479796 2.46433 0.359484 -0.473812 
2.47396 0.349853 -0.473812 2.4729 0.34407 -0.466971 2.4554 0.362158 -0.467558 
2.45479 0.362181 -0.466971 2.45531 0.361665 -0.466971 2.44667 0.362493 -0.459165 
2.45405 0.355112 -0.459165 2.43743 0.362847 -0.450279 2.43489 0.362945 -0.447835 
2.42694 0.363245 -0.440188 2.43362 0.356572 -0.440188 2.41507 0.363693 -0.428762 
2.41431 0.363722 -0.428032 2.40167 0.364192 -0.415865 2.41222 0.353643 -0.415865 
2.52077 0.329227 -0.5 2.53293 0.317065 -0.5 2.5165 0.330504 -0.497 
2.53251 0.314491 -0.497 2.53202 0.311529 -0.493548 2.51352 0.331393 -0.494913 
2.51158 0.331973 -0.493548 2.51332 0.330228 -0.493548 2.50592 0.333658 -0.489579 
2.51274 0.32684 -0.489579 2.49943 0.335593 -0.485022 2.51207 0.32295 -0.485022 
2.51131 0.318488 -0.479796 2.493 0.337509 -0.480509 2.49199 0.337811 -0.479796 
2.49289 0.336903 -0.479796 2.48347 0.340345 -0.473812 2.49199 0.331821 -0.473812 
2.47373 0.343241 -0.466971 2.49096 0.326011 -0.466971 2.4728 0.343518 -0.466318 
2.46263 0.346531 -0.459165 2.47168 0.337484 -0.459165 2.47029 0.329988 -0.450279 
2.45296 0.349398 -0.452358 2.45079 0.349492 -0.450279 2.45262 0.347655 -0.450279 
2.44024 0.349948 -0.440188 2.45099 0.339195 -0.440188 2.43236 0.350289 -0.432649 
2.4283 0.350462 -0.428762 2.43171 0.347052 -0.428762 2.41483 0.351036 -0.415865 
2.532 0.311416 -0.493416 2.52656 0.313022 -0.489579 2.53145 0.308132 -0.489579 
2.52009 0.31493 -0.485022 2.53079 0.304233 -0.485022 2.51268 0.317118 -0.479796 
2.53004 0.29976 -0.479796 2.51115 0.317569 -0.478719 2.50419 0.319618 -0.473812 
2.51042 0.313389 -0.473812 2.4945 0.322475 -0.466971 2.50941 0.307561 -0.466971 
2.49054 0.32364 -0.46418 2.48344 0.325725 -0.459165 2.48977 0.319392 -0.459165 
2.47086 0.329419 -0.450279 2.48841 0.311864 -0.450279 2.47022 0.329607 -0.449827 
2.45659 0.333596 -0.440188 2.4687 0.321487 -0.440188 2.45027 0.335447 -0.435717 
2.44296 0.335799 -0.428762 2.44913 0.32963 -0.428762 2.42958 0.336444 -0.416024 
2.42941 0.336452 -0.415865 2.42955 0.336312 -0.415865 2.52948 0.296464 -0.475944 
2.52647 0.297339 -0.473812 2.52917 0.294642 -0.473812 2.51682 0.300146 -0.466971 
2.52818 0.288794 -0.466971 2.52704 0.282121 -0.459165 2.50854 0.302557 -0.461097 
2.50582 0.303347 -0.459165 2.50825 0.300915 -0.459165 2.4933 0.30698 -0.450279 
2.50692 0.293361 -0.450279 2.48782 0.30857 -0.44639 2.47909 0.311095 -0.440188 
2.48686 0.303325 -0.440188 2.4851 0.293661 -0.428762 2.46739 0.314481 -0.431871 
2.46302 0.315739 -0.428762 2.46689 0.311867 -0.428762 2.46484 0.301025 -0.415865 
2.4473 0.320269 -0.417569 2.4455 0.320364 -0.415865 2.44702 0.318846 -0.415865 
2.52674 0.280328 -0.457068 2.51724 0.283044 -0.450279 2.52574 0.274542 -0.450279 
2.52425 0.265941 -0.440188 2.50568 0.286345 -0.442025 2.50311 0.287078 -0.440188 
[...]
POINT_DATA 385
FIELD FieldData 5
pressure 1 385 float
0.250866 0.244876 0.252766 0.229445 0.255404 0.258337 0.259822 0.261517 0.261852 
0.254743 0.263336 0.265997 0.2694 0.270053 0.258661 0.273655 0.277278 0.277279 
0.277092 0.278485 0.280494 0.279577 0.238195 0.226582 0.227494 0.227535 0.228347 
0.221428 0.229102 0.229759 0.23141 0.232112 0.23228 0.225418 0.233423 0.234363 
0.234579 0.234338 0.234531 0.234857 0.234101 0.234412 0.216831 0.217771 0.217651 
0.217914 0.218617 0.21509 0.218453 0.218392 0.219112 0.219083 0.218412 0.213069 
0.218343 0.218858 0.218834 0.217393 0.217931 0.218114 0.21786 0.215245 0.219351 
0.208397 0.200514 0.209138 0.209552 0.209943 0.21005 0.210271 0.208808 0.210195 
0.202885 0.210699 0.211737 0.211731 0.210845 0.210446 0.210812 0.210779 0.204817 
0.210928 0.211767 0.212608 0.200427 0.200278 0.201049 0.198575 0.201375 0.195461 
0.202639 0.20253 0.202804 0.202788 0.202693 0.197401 0.203421 0.204779 0.204804 
0.204396 0.204194 0.203924 0.204012 0.20453 0.206571 0.206939 0.204446 0.19985 
0.198237 0.195264 0.194944 0.196005 0.193764 0.196153 0.191334 0.195908 0.196538 
0.196369 0.196435 0.193224 0.197513 0.19881 0.199067 0.197559 0.199169 0.19944 
0.199212 0.197507 0.201199 0.198583 0.197583 0.197133 0.195466 0.194391 0.192883 
0.191265 0.191035 0.190854 0.188845 0.191027 0.192207 0.192073 0.192202 0.190168 
0.193381 0.194273 0.194706 0.192617 0.19518 0.195809 0.196289 0.192638 0.189593 
0.192749 0.193805 0.192554 0.19221 0.191508 0.190538 0.18973 0.188431 0.186978 
0.186931 0.186372 0.187899 0.184993 0.189139 0.189234 0.189409 0.187905 0.190246 
0.19067 0.191086 0.188783 0.192428 0.180241 0.177946 0.182181 0.178549 0.183642 
0.186611 0.188504 0.188424 0.188412 0.187298 0.187267 0.186088 0.184769 0.184671 
0.185545 0.184036 0.18674 0.186979 0.187144 0.185964 0.187629 0.187904 0.188646 
0.186256 0.168663 0.160945 0.173811 0.162995 0.178745 0.178816 0.178718 0.181239 
0.17984 0.182939 0.180014 0.184698 0.185724 0.185657 0.185674 0.184664 0.184528 
0.183588 0.18334 0.183757 0.183075 0.184751 0.185087 0.185221 0.184329 0.185887 
0.160073 0.160986 0.162654 0.16387 0.164172 0.165767 0.164828 0.170558 0.167007 
0.175842 0.169287 0.180214 0.180663 0.18016 0.181788 0.179755 0.182859 0.183929 
0.183734 0.183722 0.182637 0.183028 0.18222 0.182326 0.182116 0.1832 0.181248 
0.183692 0.183879 0.183195 0.168563 0.182929 0.166455 0.185252 0.165377 0.166145 
0.166634 0.16778 0.169173 0.169494 0.172094 0.171273 0.172246 0.171869 0.175967 
0.17403 0.176212 0.178687 0.178752 0.17861 0.180711 0.178471 0.182435 0.182822 
0.181918 0.182135 0.181233 0.181201 0.182101 0.180716 0.177143 0.160898 0.182877 
0.161489 0.161217 0.186811 0.185673 0.18738 0.18232 0.189233 0.178813 0.191414 
0.194081 0.174994 0.175028 0.175275 0.175975 0.178114 0.176358 0.181209 0.176464 
0.177582 0.178294 0.180387 0.17863 0.179166 0.178766 0.180538 0.178755 0.18181 
0.181444 0.18162 0.180768 0.161233 0.169823 0.161969 0.179747 0.162726 0.192133 
0.163918 0.1945 0.189934 0.194805 0.184598 0.195416 0.182356 0.181417 0.183402 
0.180557 0.185336 0.180473 0.179515 0.181529 0.178868 0.179635 0.179005 0.181541 
0.181526 0.181538 0.165223 0.169974 0.166023 0.183881 0.168085 0.170351 0.195853 
0.194495 0.195674 0.188237 0.194414 0.185975 0.184489 0.18633 0.186446 0.182306 
0.181706 0.18242 0.182901 0.179602 0.179729 0.179651 0.171072 0.181977 0.173152 
0.17552 0.193098 0.192116 0.192763 0.187085 0.191201 0.186427 0.183659 0.185984 
0.176128 0.18364 0.177134 0.178655 0.190065 0.188179 0.18919 
velocity_u 1 385 float
0.464533 0.464837 0.604918 0.603543 0.68894 0.741545 0.783409 0.80609 0.811099 
0.803424 0.815512 0.799858 0.776919 0.771198 0.749415 0.735419 0.698849 0.698779 
0.698478 0.662197 0.636373 0.626204 0.56985 0.465449 0.603379 0.611926 0.684775 
0.685428 0.735775 0.769845 0.779128 0.772065 0.765544 0.763505 0.736995 0.701387 
0.689268 0.664158 0.628254 0.61562 0.595962 0.564766 0.464718 0.602042 0.685407 
0.709931 0.736937 0.737415 0.768681 0.77642 0.761887 0.752482 0.732693 0.728366 
0.695626 0.661239 0.656711 0.655207 0.617963 0.588374 0.581495 0.574794 0.543343 
0.463405 0.462127 0.6005 0.685667 0.737366 0.761686 0.768188 0.768016 0.773851 
0.771 0.758156 0.727463 0.722518 0.689224 0.648191 0.62995 0.606674 0.596163 
0.565864 0.553591 0.520071 0.461132 0.472444 0.599125 0.598503 0.685472 0.68566 
0.737185 0.765862 0.77094 0.770762 0.753639 0.748625 0.721765 0.683239 0.680909 
0.680377 0.637762 0.594685 0.59167 0.548448 0.507544 0.494102 0.481153 0.435512 
0.579455 0.68261 0.69806 0.736942 0.736751 0.762724 0.760241 0.765176 0.747359 
0.742137 0.714342 0.707124 0.672179 0.637655 0.62555 0.622106 0.578694 0.54568 
0.529983 0.520227 0.467881 0.41912 0.414072 0.557315 0.547336 0.663806 0.726772 
0.759387 0.760504 0.7602 0.756712 0.73924 0.704023 0.691572 0.661084 0.651898 
0.61297 0.584446 0.561909 0.554081 0.508511 0.485711 0.441518 0.415882 0.430302 
0.554122 0.594503 0.652459 0.650311 0.712395 0.702995 0.742187 0.747495 0.739884 
0.732613 0.729986 0.692282 0.682614 0.64606 0.6272 0.597665 0.5871 0.545342 
0.522281 0.486982 0.473147 0.414592 0.449005 0.452907 0.580691 0.589208 0.665305 
0.705755 0.723076 0.724705 0.723973 0.724364 0.712788 0.707356 0.679223 0.671471 
0.629505 0.61972 0.577846 0.553889 0.525815 0.514464 0.466239 0.447035 0.389242 
0.368042 0.474222 0.488561 0.60289 0.630537 0.663561 0.671078 0.670992 0.704404 
0.700031 0.712095 0.695891 0.704695 0.681657 0.68034 0.679664 0.64918 0.630808 
0.608338 0.581747 0.556419 0.549366 0.501778 0.471797 0.442676 0.430993 0.364605 
0.490271 0.484695 0.632513 0.630851 0.668249 0.696179 0.696568 0.709264 0.706351 
0.697406 0.687368 0.681051 0.676725 0.67208 0.649184 0.627853 0.615429 0.592278 
0.579407 0.573415 0.530084 0.506896 0.4853 0.475941 0.47302 0.415625 0.388891 
0.374286 0.338753 0.327527 0.47255 0.435297 0.626864 0.5743 0.660241 0.696533 
0.693142 0.700037 0.68601 0.682139 0.654311 0.66402 0.655613 0.652029 0.61917 
0.600838 0.542413 0.577914 0.57468 0.572975 0.539722 0.515792 0.500624 0.489154 
0.44743 0.433784 0.387216 0.382907 0.312065 0.29162 0.403399 0.334788 0.559428 
0.45212 0.477497 0.610364 0.639517 0.631 0.642915 0.606833 0.629495 0.557851 
0.49753 0.615733 0.611811 0.609117 0.578318 0.551428 0.540355 0.487186 0.537299 
0.500209 0.481121 0.414527 0.469103 0.4606 0.455134 0.415036 0.384706 0.380516 
0.359912 0.353838 0.285998 0.476476 0.487449 0.448145 0.488461 0.406564 0.486027 
0.360425 0.485328 0.474262 0.434261 0.464276 0.370522 0.461859 0.441438 0.418666 
0.412601 0.346045 0.411011 0.371251 0.339026 0.352604 0.321672 0.304409 0.25982 
0.258962 0.25873 0.32862 0.327736 0.313395 0.324507 0.268485 0.221816 0.320685 
0.31971 0.306785 0.316809 0.246576 0.314426 0.299025 0.270469 0.190997 0.275757 
0.264896 0.254426 0.163527 0.221075 0.213496 0.209634 0.209928 0.204245 0.179881 
0.138523 0.194329 0.193557 0.185196 0.182335 0.130973 0.179494 0.14995 0.116798 
0.125395 0.113658 0.105036 0.0776968 0.0984424 0.0896318 0.0805575 
velocity_v 1 385 float
-0.33297 -0.342669 -0.43256 -0.479468 -0.432521 -0.400938 -0.363784 -0.337382 -0.331121 
-0.341347 -0.310643 -0.297649 -0.289484 -0.287491 -0.301126 -0.277845 -0.26694 -0.266914 
-0.26705 -0.249737 -0.234776 -0.226131 -0.237836 -0.373003 -0.483486 -0.482865 -0.475208 
-0.487282 -0.439889 -0.403531 -0.37543 -0.36406 -0.355205 -0.365979 -0.341435 -0.330819 
-0.327304 -0.316836 -0.299191 -0.291351 -0.274433 -0.239015 -0.383745 -0.497189 -0.493429 
-0.477514 -0.457829 -0.46439 -0.422962 -0.394977 -0.375402 -0.370704 -0.361391 -0.371509 
-0.350387 -0.341143 -0.339352 -0.341701 -0.319701 -0.301106 -0.295179 -0.299478 -0.254662 
-0.391417 -0.396956 -0.507454 -0.504636 -0.473071 -0.44622 -0.437647 -0.440526 -0.410321 
-0.424644 -0.389768 -0.373979 -0.372477 -0.362165 -0.349779 -0.342782 -0.330473 -0.339338 
-0.304685 -0.295365 -0.262491 -0.39731 -0.406084 -0.514909 -0.516211 -0.514848 -0.521199 
-0.483745 -0.451741 -0.424784 -0.424537 -0.40379 -0.413774 -0.386365 -0.372364 -0.371501 
-0.372056 -0.356949 -0.340203 -0.33875 -0.311635 -0.281505 -0.269049 -0.27209 -0.404825 
-0.523676 -0.523101 -0.515168 -0.491965 -0.494435 -0.460623 -0.466385 -0.434458 -0.414959 
-0.412617 -0.397546 -0.404306 -0.380781 -0.368418 -0.363868 -0.365647 -0.343765 -0.327715 
-0.317898 -0.319678 -0.274008 -0.411472 -0.414276 -0.534025 -0.540967 -0.534039 -0.502708 
-0.467059 -0.464477 -0.440786 -0.442998 -0.420573 -0.405473 -0.40171 -0.388725 -0.391913 
-0.369976 -0.357881 -0.34769 -0.34919 -0.319777 -0.306627 -0.275851 -0.276387 -0.413401 
-0.540177 -0.54288 -0.542903 -0.543687 -0.512199 -0.514619 -0.477362 -0.447146 -0.431131 
-0.425058 -0.425153 -0.407602 -0.408668 -0.392014 -0.386268 -0.373714 -0.373959 -0.350218 
-0.33868 -0.319666 -0.319188 -0.276231 -0.409678 -0.405337 -0.532605 -0.52403 -0.539581 
-0.51327 -0.485228 -0.482825 -0.482728 -0.451618 -0.451183 -0.427668 -0.409094 -0.405685 
-0.390559 -0.38861 -0.37212 -0.363155 -0.349631 -0.347613 -0.318387 -0.307621 -0.272318 
-0.268017 -0.394616 -0.377511 -0.51656 -0.486334 -0.530406 -0.531134 -0.530631 -0.504844 
-0.500362 -0.476329 -0.467863 -0.449955 -0.427045 -0.425813 -0.42565 -0.405748 -0.4011 
-0.38728 -0.376195 -0.366522 -0.363829 -0.343268 -0.32914 -0.312787 -0.308777 -0.267052 
-0.353253 -0.307319 -0.474754 -0.399771 -0.494842 -0.503644 -0.499534 -0.485265 -0.471629 
-0.461894 -0.439302 -0.449151 -0.44221 -0.440229 -0.418186 -0.410481 -0.397611 -0.38566 
-0.379578 -0.377203 -0.358087 -0.348203 -0.336997 -0.332741 -0.331212 -0.301682 -0.287747 
-0.279243 -0.257438 -0.252476 -0.281524 -0.232467 -0.388993 -0.310376 -0.412966 -0.436789 
-0.427106 -0.431066 -0.401598 -0.421772 -0.371514 -0.41975 -0.414635 -0.410583 -0.397686 
-0.378464 -0.34658 -0.384234 -0.382349 -0.381529 -0.364102 -0.35135 -0.345455 -0.339939 
-0.319596 -0.311821 -0.286962 -0.284555 -0.243942 -0.230702 -0.211423 -0.175479 -0.300096 
-0.244412 -0.26296 -0.332368 -0.352126 -0.345573 -0.352806 -0.32784 -0.347482 -0.303827 
-0.280869 -0.3474 -0.346672 -0.343654 -0.343704 -0.314993 -0.343545 -0.28827 -0.344068 
-0.334598 -0.316224 -0.283102 -0.327217 -0.323102 -0.319548 -0.300264 -0.279994 -0.282553 
-0.27106 -0.26726 -0.227468 -0.262638 -0.270542 -0.253357 -0.272085 -0.237222 -0.275898 
-0.220101 -0.276956 -0.275499 -0.261244 -0.276862 -0.243678 -0.278938 -0.279067 -0.26396 
-0.281354 -0.238176 -0.281298 -0.268046 -0.245027 -0.261269 -0.244906 -0.233233 -0.211544 
-0.211004 -0.210879 -0.209746 -0.212072 -0.204001 -0.220147 -0.185869 -0.166404 -0.230786 
-0.22994 -0.226941 -0.227827 -0.208728 -0.226347 -0.221629 -0.20957 -0.176828 -0.212923 
-0.207636 -0.202167 -0.154056 -0.184446 -0.180127 -0.17771 -0.161591 -0.175036 -0.145818 
-0.12212 -0.190146 -0.188017 -0.186071 -0.173999 -0.158637 -0.171477 -0.148548 -0.138424 
-0.113834 -0.128363 -0.0955825 -0.0703201 -0.139088 -0.128512 -0.123939 
velocity_w 1 385 float
-0.0123157 -0.0118457 0.0122347 0.0104051 0.0130456 0.0158501 0.0203632 0.0225622 0.0231449 
0.0231644 0.0233603 0.0208173 0.0169763 0.0160548 0.0157296 0.0101322 0.00444941 0.00443824 
0.00443396 -6.17515e-05 -0.000610475 -0.000905321 -0.000490131 -0.01022 0.0102317 0.0107351 0.0151364 
0.017001 0.0180534 0.0215363 0.0233997 0.0230168 0.0227999 0.0243453 0.0198852 0.0149225 
0.013053 0.00895897 0.00313114 0.00141885 -0.00140868 -0.000486551 -0.00978012 0.00980977 0.0179619 
0.0188691 0.0200132 0.0213265 0.0243193 0.0262928 0.0256653 0.0246717 0.0226216 0.0265668 
0.0177267 0.0124787 0.0117602 0.0124265 0.005065 0.000658101 -0.000358548 0.000368884 -0.000514025 
-0.00943192 -0.0089869 0.00955916 0.0190305 0.0233356 0.0264769 0.0274726 0.0280501 0.0306504 
0.0332293 0.0303444 0.0274515 0.0267944 0.0222131 0.0153343 0.0120491 0.00795871 0.0102238 
0.00138088 0.000820644 -0.000320898 -0.00895367 -0.00762051 0.0090911 0.00881889 0.0195334 0.0201916 
0.0248863 0.0306115 0.0332596 0.0332794 0.034269 0.036022 0.0316726 0.0269276 0.0266071 
0.02679 0.0189912 0.0105428 0.0100104 0.00296895 0.00109109 0.000417358 0.000396016 -0.00753517 
0.00795231 0.0204378 0.0214138 0.025369 0.0253401 0.0312028 0.0305483 0.0352941 0.036241 
0.0360821 0.0344287 0.0352061 0.0292838 0.0241535 0.02219 0.0227093 0.0130521 0.00714744 
0.00449852 0.00524918 0.0004238 -0.00597643 -0.00528494 0.00649013 0.00533682 0.0201782 0.027074 
0.0307177 0.0309031 0.0350159 0.0346176 0.0363444 0.035251 0.0342015 0.0307978 0.0309691 
0.0237456 0.0189381 0.0150449 0.0155614 0.00626629 0.00445244 0.00139191 0.00257191 -0.00442694 
0.00504501 0.0117817 0.0198897 0.0197435 0.0283352 0.0285689 0.0338506 0.0358478 0.0353516 
0.0356416 0.0353254 0.0341855 0.0326258 0.0307251 0.0285342 0.0244115 0.0239246 0.0159471 
0.0125509 0.00741153 0.00767545 0.00264292 -0.00275956 -0.00202227 0.0032591 0.00209222 0.0161013 
0.0264949 0.0343252 0.0347477 0.0347445 0.0372455 0.0371146 0.0362758 0.032805 0.0317731 
0.0286122 0.0266295 0.0231809 0.0199391 0.0156682 0.0146033 0.00775168 0.00651908 0.00255061 
0.00226359 -0.00224914 -0.00355971 0.00220801 0.00404456 0.0120576 0.0131892 0.0131207 0.0233255 
0.0223069 0.0315519 0.0292713 0.0359391 0.0364529 0.0363866 0.0363379 0.0321195 0.03097 
0.0263165 0.0223208 0.0197681 0.0183108 0.0133549 0.0100724 0.00678206 0.00584614 0.00220524 
-0.00702474 -0.0106326 0.00540019 0.010207 0.00960409 0.0138294 0.0138121 0.0204919 0.0191601 
0.0277941 0.0224983 0.0316425 0.0326513 0.0320077 0.0328356 0.0298318 0.0298386 0.0261888 
0.0241851 0.0236324 0.016997 0.0148455 0.0109626 0.0100684 0.00959033 0.00474819 0.00234482 
0.00293665 0.00145786 0.00087333 -0.0120456 -0.0131557 0.0106889 0.0121414 0.0124517 0.0153068 
0.015055 0.0179196 0.0155704 0.0207507 0.0140636 0.0230098 0.0238271 0.0226656 0.0249776 
0.0187455 0.0123276 0.0248342 0.0245629 0.0242761 0.0198974 0.0159698 0.0142314 0.0127079 
0.00762807 0.00616867 0.00226151 0.00210116 0.000285128 -0.000973736 -0.0103104 -0.00794991 0.0109741 
0.00786605 0.00910466 0.0127437 0.0134698 0.0132275 0.0134714 0.0123485 0.0125444 0.0110983 
0.00901445 0.0113271 0.0113534 0.010831 0.0111226 0.00561944 0.011601 0.000246305 0.0116673 
0.0101989 0.00474927 -0.0027643 0.00903512 0.00804031 0.00709937 0.00373844 -0.000987497 0.00154461 
0.000149994 -0.000474806 -0.00121002 0.00899532 0.006774 0.00541485 0.00749195 0.00249106 0.00830502 
-0.000274491 0.00862636 0.00550393 0.00708925 0.000359909 0.00558909 -0.00162535 -0.00233638 -0.00424944 
-0.00306207 -0.00685436 -0.00306255 -0.00349747 -0.00688572 -0.0032404 -0.00381171 -0.00521417 -0.00250989 
-0.00249504 -0.00250344 -0.00201794 -0.00150312 -0.00279162 0.00223265 -0.00318438 -0.00249573 0.00539952 
0.00364651 0.00530346 -0.00405495 0.00594763 -0.00709366 -0.0076596 -0.00639389 -0.00317333 -0.0075459 
-0.00720729 -0.00711351 -0.00286045 -0.00443031 -0.00393653 -0.00398095 -0.00202452 0.00242153 -0.000230004 
0.00328821 0.0070527 0.00556028 0.00720828 -0.0018381 0.00859907 -0.00265078 -0.00210783 0.000460554 
0.0042131 0.00710117 0.00618347 0.00765092 0.00840144 0.00529855 0.00797424 
temperature 1 385 float
0.273999 0.272672 0.245069 0.238162 0.230233 0.223278 0.218787 0.216916 0.216512 
0.21609 0.21674 0.220459 0.225111 0.226214 0.227481 0.232821 0.239599 0.239612 
0.23963 0.246326 0.251221 0.253103 0.256946 0.268524 0.237573 0.236105 0.223826 
0.222168 0.217909 0.214735 0.214517 0.216593 0.218369 0.217773 0.223971 0.230354 
0.23252 0.237079 0.243793 0.246311 0.250316 0.257278 0.267242 0.235731 0.221326 
0.218393 0.215341 0.214565 0.212707 0.213371 0.217211 0.219072 0.222885 0.222637 
0.229413 0.235316 0.236101 0.236108 0.243182 0.248934 0.250287 0.250687 0.258336 
0.266286 0.265428 0.234356 0.21944 0.213508 0.211671 0.211274 0.211048 0.212362 
0.211583 0.216507 0.222548 0.22344 0.22926 0.236274 0.239476 0.243575 0.244075 
0.25116 0.253582 0.260143 0.265505 0.262954 0.233179 0.232883 0.217589 0.216132 
0.212089 0.210189 0.211578 0.211629 0.216006 0.216014 0.222323 0.229239 0.229646 
0.229664 0.236867 0.244165 0.244706 0.252332 0.259724 0.262087 0.262963 0.267846 
0.234786 0.216407 0.214605 0.210718 0.210229 0.209477 0.208787 0.211401 0.216084 
0.217119 0.222489 0.223138 0.229923 0.235788 0.23777 0.237994 0.24544 0.251021 
0.253561 0.25427 0.263818 0.269545 0.270256 0.237195 0.238468 0.21852 0.211351 
0.208893 0.208904 0.211328 0.211715 0.216634 0.223469 0.225644 0.230796 0.231842 
0.238648 0.243278 0.246774 0.247349 0.255191 0.258789 0.265373 0.267002 0.268434 
0.237559 0.230241 0.220156 0.220575 0.213484 0.215065 0.211601 0.213241 0.215587 
0.217224 0.217614 0.224768 0.226027 0.232542 0.235604 0.240113 0.241303 0.248084 
0.251633 0.256789 0.257812 0.26709 0.266957 0.267019 0.234866 0.23485 0.218665 
0.214633 0.214434 0.214384 0.214518 0.217062 0.219095 0.221305 0.226547 0.227828 
0.234507 0.235759 0.242357 0.246012 0.249949 0.251165 0.258411 0.261051 0.268543 
0.269915 0.265146 0.265242 0.233483 0.233237 0.22045 0.21896 0.219049 0.216044 
0.217379 0.217272 0.2209 0.220654 0.225642 0.225907 0.226022 0.231237 0.234168 
0.237434 0.241303 0.244869 0.245696 0.252517 0.256802 0.260541 0.26167 0.270182 
0.267006 0.270614 0.234191 0.241574 0.224978 0.218356 0.218797 0.217463 0.21934 
0.221205 0.224853 0.22467 0.225719 0.226506 0.231027 0.234413 0.236504 0.24008 
0.241826 0.242683 0.248336 0.251695 0.254231 0.255423 0.255724 0.263131 0.265765 
0.268192 0.272048 0.272872 0.27523 0.283584 0.243689 0.259883 0.235294 0.226606 
0.228022 0.224508 0.229241 0.227439 0.235525 0.229822 0.231157 0.231921 0.236722 
0.240444 0.249398 0.242247 0.24271 0.242947 0.247436 0.250745 0.252581 0.254063 
0.258953 0.26074 0.265969 0.266447 0.273995 0.275503 0.281762 0.275319 0.260211 
0.258635 0.252659 0.252643 0.246399 0.248064 0.242615 0.24921 0.242174 0.254414 
0.260588 0.242341 0.242771 0.243271 0.246187 0.25098 0.249907 0.258944 0.250162 
0.253978 0.257099 0.265167 0.257094 0.258058 0.258704 0.263247 0.26686 0.267048 
0.269121 0.269776 0.276109 0.252721 0.25403 0.254299 0.257195 0.257648 0.261043 
0.261922 0.261859 0.262142 0.265974 0.262034 0.270852 0.261888 0.263369 0.2658 
0.265453 0.272226 0.265578 0.268907 0.272403 0.270416 0.273323 0.274783 0.278686 
0.278753 0.27877 0.264963 0.26658 0.266348 0.27114 0.270281 0.274447 0.27448 
0.274513 0.275282 0.27474 0.278936 0.274923 0.276106 0.277854 0.282819 0.27786 
0.278611 0.2793 0.284793 0.281489 0.282029 0.282213 0.275505 0.278706 0.278196 
0.281651 0.282014 0.282161 0.282491 0.283282 0.285264 0.283494 0.285459 0.28649 
0.282671 0.284901 0.284425 0.286682 0.286891 0.287484 0.287757 
