# vtk DataFile Version 5.1
vtk output
ASCII
DATASET POLYDATA
POINTS 2833 float
2.3246 0.441267 -0.415865 2.3278 0.438068 -0.415865 2.3101 0.441267 -0.401362 
2.30813 0.441267 -0.399397 2.29385 0.441267 -0.385118 2.28766 0.441267 -0.378927 
2.27574 0.441267 -0.36701 2.26717 0.441267 -0.358437 2.25566 0.441267 -0.346925 
2.24665 0.441267 -0.337917 2.23351 0.441267 -0.324774 2.22611 0.441267 -0.317377 
2.20923 0.441267 -0.300497 2.20556 0.441267 -0.296827 2.185 0.441267 -0.276267 
2.18281 0.441267 -0.274072 2.18451 0.439563 -0.274072 2.16444 0.441267 -0.255707 
2.15426 0.441267 -0.245523 2.14389 0.441267 -0.235157 2.12366 0.441267 -0.214926 
2.12335 0.441267 -0.214617 2.10283 0.441267 -0.194097 2.09115 0.441267 -0.182417 
2.08234 0.441267 -0.173607 2.06187 0.441267 -0.153137 2.05692 0.441267 -0.148191 
2.04145 0.441267 -0.132717 2.02124 0.441267 -0.112505 2.02106 0.441267 -0.112327 
2.00073 0.441267 -0.091997 1.9844 0.441267 -0.0756682 1.98045 0.441267 -0.071717 
1.96023 0.441267 -0.051497 1.94677 0.441267 -0.038037 1.94008 0.441267 -0.031347 
1.92 0.441267 -0.0112669 1.90873 0.441267 -8.11114e-08 1.9 0.441267 0.00873303 
2.32808 0.437781 -0.415865 2.32773 0.437782 -0.415512 2.31355 0.437808 -0.401362 
2.30728 0.43782 -0.3951 2.29728 0.437839 -0.385118 2.2868 0.437858 -0.374658 
2.27914 0.437872 -0.36701 2.26629 0.437896 -0.354186 2.25902 0.437909 -0.346925 
2.24575 0.437932 -0.333682 2.23683 0.437948 -0.324774 2.2252 0.437968 -0.313168 
2.21251 0.43799 -0.300497 2.20464 0.438004 -0.292644 2.18604 0.438035 -0.274072 
2.18407 0.438038 -0.272108 2.1635 0.438072 -0.251572 2.15744 0.438082 -0.245523 
2.14294 0.438105 -0.231045 2.1268 0.438131 -0.214926 2.12239 0.438138 -0.210528 
2.10186 0.43817 -0.19003 2.09424 0.438182 -0.182417 2.08135 0.438201 -0.169551 
2.06088 0.438231 -0.149111 2.05996 0.438232 -0.148191 2.06065 0.437537 -0.148191 
2.04045 0.438261 -0.128711 2.02422 0.438283 -0.112505 2.02006 0.438289 -0.108349 
1.99972 0.438318 -0.088038 1.98733 0.438334 -0.0756682 1.97944 0.438345 -0.0677849 
1.95921 0.438372 -0.047582 1.94965 0.438384 -0.038037 1.93906 0.438397 -0.0274569 
1.91898 0.438423 -0.00740299 1.91157 0.438432 -8.11114e-08 1.89898 0.438447 0.012573 
2.33205 0.433814 -0.415865 2.32679 0.433835 -0.410625 2.31749 0.433872 -0.401362 
2.30632 0.433917 -0.390237 2.30118 0.433937 -0.385118 2.30531 0.429805 -0.385118 
2.28583 0.433997 -0.369827 2.283 0.434008 -0.36701 2.28526 0.431751 -0.36701 
2.26529 0.434076 -0.349366 2.26284 0.434085 -0.346925 2.26479 0.432138 -0.346925 
2.24474 0.434154 -0.328894 2.2406 0.434169 -0.324774 2.24387 0.430907 -0.324774 
2.22417 0.43423 -0.3084 2.21624 0.434259 -0.300497 2.20359 0.434305 -0.287895 
2.18972 0.434354 -0.274072 2.18301 0.434378 -0.267388 2.16243 0.43445 -0.24688 
2.16107 0.434455 -0.245523 2.16212 0.433404 -0.245523 2.14185 0.434521 -0.226371 
2.13037 0.43456 -0.214926 2.12129 0.43459 -0.20588 2.10075 0.434657 -0.185407 
2.09775 0.434667 -0.182417 2.10003 0.432382 -0.182417 2.08024 0.434723 -0.164963 
2.06342 0.434776 -0.148191 2.05976 0.434787 -0.144547 2.03932 0.43485 -0.12417 
2.02762 0.434885 -0.112505 2.01892 0.434911 -0.103831 1.99858 0.43497 -0.0835499 
1.99068 0.434993 -0.0756682 1.97829 0.435028 -0.0633179 1.95806 0.435085 -0.043145 
1.95294 0.435099 -0.038037 1.9379 0.435139 -0.0230389 1.91782 0.435193 -0.00301296 
1.9148 0.435201 -8.11114e-08 1.91702 0.432978 -8.11114e-08 1.89782 0.435244 0.016936 
2.33656 0.429304 -0.415865 2.32573 0.429374 -0.405104 2.32196 0.429398 -0.401362 
2.32501 0.426352 -0.401362 2.30562 0.429502 -0.385118 2.30524 0.429504 -0.384744 
2.2874 0.429614 -0.36701 2.28472 0.429631 -0.364351 2.26719 0.429738 -0.346925 
2.26417 0.429757 -0.343927 2.2449 0.429872 -0.324774 2.24359 0.42988 -0.32347 
2.22301 0.430001 -0.303011 2.22048 0.430016 -0.300497 2.22247 0.428031 -0.300497 
2.20241 0.43012 -0.28253 2.1939 0.430168 -0.274072 2.18181 0.430236 -0.262046 
2.16519 0.430329 -0.245523 2.16121 0.430351 -0.241561 2.14062 0.430462 -0.221082 
2.13443 0.430495 -0.214926 2.12005 0.430572 -0.200622 2.10175 0.430667 -0.182417 
2.0995 0.430679 -0.180179 2.07897 0.430783 -0.159753 2.06735 0.430841 -0.148191 
2.05848 0.430885 -0.139365 2.03803 0.430985 -0.119015 2.03149 0.431016 -0.112505 
2.01763 0.431082 -0.0987121 1.99728 0.431176 -0.078456 1.99448 0.431189 -0.0756682 
1.99657 0.429099 -0.0756682 1.97698 0.431268 -0.058248 1.95675 0.431358 -0.038108 
1.95668 0.431358 -0.038037 1.95673 0.431305 -0.038037 1.93659 0.431444 -0.0180339 
1.91848 0.431521 -8.11114e-08 1.9165 0.431529 0.00197107 1.8965 0.431611 0.021889 
2.34168 0.424184 -0.415865 2.34438 0.421481 -0.415865 2.32704 0.424317 -0.401362 
2.32453 0.42434 -0.39887 2.31065 0.424464 -0.385118 2.30401 0.424523 -0.378533 
2.29239 0.424625 -0.36701 2.28346 0.424703 -0.358163 2.27212 0.424801 -0.346925 
2.26289 0.42488 -0.33777 2.24978 0.424991 -0.324774 2.2423 0.425054 -0.317354 
2.2253 0.425194 -0.300497 2.22169 0.425224 -0.296914 2.20107 0.425392 -0.276462 
2.19866 0.425411 -0.274072 2.20054 0.423532 -0.274072 2.18045 0.425556 -0.256006 
2.16988 0.425639 -0.245523 2.15984 0.425717 -0.235557 2.13923 0.425875 -0.215105 
2.13905 0.425876 -0.214926 2.13919 0.425738 -0.214926 2.11864 0.426029 -0.194669 
2.1063 0.42612 -0.182417 2.09808 0.42618 -0.17426 2.07754 0.426327 -0.153867 
2.07182 0.426367 -0.148191 2.07616 0.422033 -0.148191 2.05704 0.426471 -0.133511 
2.03658 0.426611 -0.113191 2.03589 0.426616 -0.112505 2.03641 0.426096 -0.112505 
2.01617 0.426748 -0.092918 1.99881 0.426861 -0.0756682 1.99581 0.426881 -0.072691 
1.97551 0.427011 -0.052521 1.96094 0.427102 -0.038037 1.95527 0.427137 -0.032407 
1.9351 0.427259 -0.0123589 1.92267 0.427333 -8.11114e-08 1.91501 0.427378 0.00761205 
1.89501 0.427493 0.027497 2.34749 0.418378 -0.415865 2.34368 0.418424 -0.412104 
2.33281 0.418554 -0.401362 2.32317 0.41867 -0.39184 2.31637 0.41875 -0.385118 
2.32187 0.41325 -0.385118 2.30263 0.418912 -0.371542 2.29804 0.418965 -0.36701 
2.30173 0.415283 -0.36701 2.28205 0.41915 -0.3512 2.27773 0.419199 -0.346925 
2.28118 0.415747 -0.346925 2.26145 0.419383 -0.330833 2.25532 0.419451 -0.324774 
2.26019 0.414588 -0.324774 2.24083 0.419613 -0.310443 2.23077 0.419723 -0.300497 
2.2202 0.419839 -0.290039 2.20406 0.420012 -0.274072 2.19955 0.42006 -0.26961 
2.17891 0.420277 -0.249187 2.17521 0.420315 -0.245523 2.17808 0.417439 -0.245523 
2.15828 0.42049 -0.22877 2.14429 0.420631 -0.214926 2.13766 0.420698 -0.208358 
2.11705 0.420901 -0.187951 2.11146 0.420955 -0.182417 2.11574 0.416676 -0.182417 
2.09647 0.4211 -0.16757 2.07691 0.421286 -0.148191 2.07592 0.421295 -0.147215 
2.05541 0.421485 -0.126895 2.04089 0.421616 -0.112505 2.03494 0.42167 -0.10661 
2.01452 0.42185 -0.0863699 2.00373 0.421943 -0.0756682 1.99415 0.422026 -0.066176 
1.97384 0.422197 -0.046037 1.96577 0.422264 -0.038037 1.95359 0.422364 -0.025954 
1.93342 0.422525 -0.00594491 1.92743 0.422572 -8.11114e-08 1.93186 0.418139 -8.11114e-08 
1.91333 0.422682 0.0139881 1.89332 0.422834 0.0338461 1.8922 0.419759 0.0380369 
2.35406 0.411804 -0.415865 2.36112 0.404744 -0.415865 2.34218 0.411987 -0.404167 
2.33933 0.41203 -0.401362 2.34165 0.409712 -0.401362 2.32284 0.41228 -0.385118 
2.32164 0.412298 -0.383938 2.30446 0.412554 -0.36701 2.30106 0.412605 -0.363665 
2.28407 0.412853 -0.346925 2.28045 0.412906 -0.343356 2.2616 0.413176 -0.324774 
2.25982 0.413202 -0.323022 2.23917 0.413493 -0.302663 2.23697 0.413523 -0.300497 
2.23871 0.411789 -0.300497 2.21851 0.413779 -0.282289 2.21018 0.413892 -0.274072 
2.21672 0.407349 -0.274072 2.19785 0.414059 -0.261909 2.18124 0.41428 -0.245523 
2.17718 0.414334 -0.241514 2.15653 0.414603 -0.221133 2.15024 0.414683 -0.214926 
2.1551 0.409826 -0.214926 2.13588 0.414866 -0.200746 2.11732 0.415098 -0.182417 
2.11526 0.415124 -0.180384 2.09466 0.415376 -0.160036 2.08267 0.415519 -0.148191 
2.0741 0.415622 -0.139722 2.05357 0.415862 -0.119432 2.04656 0.415942 -0.112505 
2.05186 0.410649 -0.112505 2.03308 0.416097 -0.0991771 2.01265 0.416325 -0.078975 
2.00931 0.416361 -0.0756682 2.01181 0.413856 -0.0756682 1.99227 0.416547 -0.058817 
1.97195 0.416764 -0.038714 1.97127 0.416771 -0.038037 1.97178 0.416262 -0.038037 
1.9517 0.416974 -0.018674 1.93283 0.417166 -8.11114e-08 1.93152 0.417179 0.00130105 
1.91142 0.417377 0.021203 1.89442 0.41754 0.0380369 1.89141 0.417569 0.041021 
2.36149 0.404376 -0.415865 2.36104 0.404385 -0.415425 2.34671 0.404656 -0.401362 
2.3405 0.404773 -0.395273 2.33015 0.404966 -0.385118 2.31992 0.405156 -0.375076 
2.3117 0.405306 -0.36701 2.31835 0.39866 -0.36701 2.2993 0.405533 -0.354833 
2.29125 0.405677 -0.346925 2.29772 0.399202 -0.346925 2.27866 0.405903 -0.334563 
2.2687 0.406078 -0.324774 2.27665 0.398121 -0.324774 2.25799 0.406267 -0.314257 
2.24399 0.406509 -0.300497 2.23731 0.406625 -0.293935 2.2171 0.406968 -0.274072 
2.21662 0.406976 -0.273596 2.19592 0.40732 -0.25324 2.18807 0.407448 -0.245523 
2.1942 0.40132 -0.245523 2.17523 0.407658 -0.232888 2.15698 0.407949 -0.214926 
2.15455 0.407988 -0.212538 2.13388 0.408312 -0.192192 2.12395 0.408464 -0.182417 
2.11324 0.408628 -0.171868 2.09262 0.408938 -0.151558 2.0892 0.408988 -0.148191 
2.09181 0.406384 -0.148191 2.07204 0.40924 -0.13128 2.05299 0.409513 -0.112505 
2.05149 0.409535 -0.111025 2.03099 0.409823 -0.0908129 2.01564 0.410033 -0.0756682 
2.01054 0.410103 -0.070643 1.99015 0.410376 -0.050526 1.9775 0.410542 -0.038037 
1.96982 0.410642 -0.030462 1.94957 0.4109 -0.0104699 1.93897 0.411032 -8.11114e-08 
1.92938 0.411151 0.00946897 1.90928 0.411394 0.0293261 1.90046 0.411498 0.0380369 
1.90698 0.404986 0.0380369 1.88925 0.411631 0.049119 2.36987 0.395999 -0.415865 
2.378 0.387862 -0.415865 2.3592 0.396245 -0.405445 2.35502 0.39634 -0.401362 
2.35844 0.392918 -0.401362 2.33861 0.396712 -0.385322 2.3384 0.396717 -0.385118 
2.33857 0.396547 -0.385118 2.31988 0.39713 -0.36701 2.31799 0.397172 -0.365162 
2.29935 0.39758 -0.346925 2.29733 0.397624 -0.344954 2.27671 0.398068 -0.324774 
[...]
POINT_DATA 2833
FIELD FieldData 5
pressure 1 2833 float
0.279577 0.238195 0.274145 0.27336 0.258814 0.252624 0.236892 0.225684 0.213925 
0.204853 0.197134 0.192922 0.18812 0.187089 0.184084 0.183902 0.183306 0.182359 
0.181985 0.181652 0.181773 0.181775 0.182197 0.182284 0.182363 0.182145 0.182152 
0.182185 0.183348 0.183358 0.184683 0.184731 0.184659 0.18343 0.184277 0.18474 
0.186798 0.196938 0.204486 0.234412 0.234356 0.226889 0.223678 0.217015 0.210624 
0.205997 0.198307 0.195446 0.190072 0.188188 0.185667 0.184419 0.183599 0.182733 
0.182632 0.182342 0.182343 0.182328 0.182537 0.1826 0.182946 0.182993 0.183049 
0.183068 0.183073 0.182962 0.183204 0.183566 0.183664 0.183555 0.183587 0.183619 
0.18357 0.183456 0.183257 0.181572 0.180631 0.17926 0.219351 0.219005 0.216122 
0.212727 0.210275 0.205894 0.203746 0.202511 0.201047 0.194562 0.193848 0.193178 
0.188242 0.187568 0.186993 0.184797 0.184201 0.183172 0.182684 0.182421 0.182159 
0.182155 0.182117 0.182082 0.182168 0.182243 0.182434 0.18245 0.182448 0.182541 
0.182544 0.182538 0.182622 0.182755 0.182861 0.182958 0.182947 0.182934 0.182613 
0.182587 0.182512 0.181717 0.181809 0.18168 0.182462 0.212608 0.211455 0.210313 
0.207614 0.205478 0.205404 0.199343 0.198431 0.192465 0.191391 0.18689 0.186578 
0.183963 0.183813 0.183663 0.182717 0.182494 0.182169 0.182038 0.181994 0.182032 
0.182095 0.182252 0.18244 0.182462 0.182518 0.182528 0.182519 0.182618 0.1827 
0.182877 0.182886 0.18287 0.1827 0.18276 0.182434 0.182433 0.182431 0.182252 
0.181725 0.18166 0.182755 0.206939 0.204446 0.205275 0.204899 0.201104 0.199958 
0.19663 0.19433 0.191294 0.188903 0.186521 0.185225 0.183552 0.183205 0.182258 
0.182223 0.182153 0.181922 0.181913 0.181882 0.181966 0.181967 0.181961 0.182087 
0.182138 0.182165 0.18223 0.182261 0.182165 0.182318 0.182459 0.182463 0.18243 
0.18257 0.182511 0.182495 0.182428 0.182231 0.182156 0.182117 0.181796 0.181572 
0.18269 0.201199 0.201103 0.199804 0.198613 0.197066 0.19373 0.195097 0.194128 
0.192522 0.190866 0.190058 0.189162 0.186762 0.185989 0.18532 0.184026 0.183345 
0.182561 0.182086 0.181948 0.181767 0.181765 0.181646 0.181727 0.181757 0.181771 
0.181898 0.181936 0.181849 0.182029 0.182148 0.182152 0.182159 0.182174 0.182189 
0.182336 0.182343 0.182339 0.182278 0.182171 0.181998 0.182182 0.182015 0.182188 
0.181584 0.182779 0.182748 0.196289 0.192638 0.195587 0.195242 0.194198 0.193005 
0.192972 0.191005 0.190703 0.18831 0.187755 0.185181 0.184908 0.183056 0.182946 
0.182878 0.182026 0.181847 0.181589 0.181599 0.181524 0.181498 0.181553 0.181592 
0.181493 0.181686 0.181819 0.181832 0.18189 0.181906 0.181908 0.181949 0.181993 
0.181953 0.182102 0.182252 0.182247 0.182187 0.18217 0.182125 0.182119 0.182125 
0.181978 0.182175 0.182187 0.181644 0.182549 0.182716 0.192428 0.192429 0.191632 
0.190998 0.189814 0.189407 0.1886 0.187407 0.187842 0.186982 0.186338 0.185759 
0.184754 0.184425 0.18373 0.182781 0.182335 0.181582 0.181565 0.181332 0.181347 
0.181195 0.18135 0.181455 0.181472 0.181578 0.181617 0.181656 0.181718 0.181742 
0.181717 0.181828 0.181946 0.181956 0.182017 0.182074 0.182078 0.182087 0.182109 
0.182138 0.182007 0.182098 0.182186 0.181668 0.182139 0.181742 0.182743 0.188646 
0.186256 0.188802 0.188595 0.187689 0.187622 0.187604 0.187566 0.187002 0.187003 
0.186049 0.185971 0.18442 0.184416 0.182795 0.182626 0.182555 0.181749 0.181517 
0.18139 0.181266 0.181171 0.181157 0.181187 0.181234 0.181052 0.181307 0.181427 
0.181428 0.181426 0.181571 0.181675 0.18171 0.181787 0.181797 0.181681 0.181827 
0.181939 0.181981 0.18199 0.18208 0.182098 0.18211 0.182106 0.182194 0.182046 
0.182058 0.18206 0.182222 0.181757 0.181747 0.182712 0.185887 0.185902 0.185813 
0.185751 0.185263 0.184122 0.185265 0.185124 0.184342 0.185074 0.184846 0.184334 
0.184299 0.183854 0.183522 0.183121 0.18248 0.182047 0.181388 0.181358 0.181016 
0.180996 0.180846 0.180931 0.181002 0.181012 0.181197 0.181282 0.181138 0.181369 
0.181533 0.181548 0.181508 0.181622 0.181663 0.181668 0.181855 0.181989 0.182027 
0.182131 0.18213 0.182143 0.182219 0.182182 0.182348 0.182148 0.182276 0.182057 
0.182279 0.181812 0.182685 0.182712 0.183879 0.183195 0.183679 0.18368 0.183606 
0.183614 0.183704 0.183661 0.183736 0.18376 0.18373 0.18332 0.183194 0.182379 
0.182338 0.182325 0.181538 0.181333 0.181225 0.180977 0.180798 0.180732 0.180754 
0.180794 0.180722 0.180929 0.181102 0.181123 0.181289 0.181373 0.181227 0.18144 
0.181578 0.181641 0.181621 0.181776 0.181971 0.181995 0.181982 0.182067 0.182167 
0.18217 0.18218 0.182258 0.182354 0.182358 0.182215 0.182271 0.182279 0.181923 
0.18256 0.182731 0.182101 0.180716 0.182188 0.182101 0.181498 0.182344 0.182397 
0.182113 0.182716 0.182726 0.182633 0.182971 0.182969 0.182882 0.182992 0.182903 
0.182742 0.182469 0.182183 0.181944 0.181687 0.181201 0.180898 0.180979 0.180604 
0.180598 0.180587 0.180569 0.180624 0.180509 0.180682 0.180857 0.1809 0.180831 
0.181032 0.181202 0.181218 0.181442 0.181596 0.181509 0.181669 0.181864 0.181942 
0.181873 0.182001 0.182139 0.182214 0.18224 0.182344 0.182405 0.182403 0.182419 
0.182381 0.182266 0.182289 0.182309 0.182377 0.182063 0.182149 0.182078 0.182711 
0.180768 0.180434 0.180602 0.179638 0.181128 0.181288 0.180713 0.18151 0.181664 
0.181093 0.182003 0.182051 0.181489 0.182162 0.182111 0.181449 0.181994 0.18168 
0.180954 0.181463 0.180876 0.180837 0.180546 0.180498 0.180441 0.180453 0.180485 
0.180499 0.180592 0.180687 0.180539 0.180762 0.180985 0.181032 0.180994 0.18125 
0.181502 0.181514 0.181723 0.181844 0.181722 0.181876 0.182096 0.182245 0.182245 
0.18233 0.182458 0.18245 0.182464 0.182429 0.182456 0.182429 0.182552 0.182418 
0.182463 0.18233 0.182482 0.182129 0.182693 0.182716 0.181526 0.181538 0.179969 
0.181232 0.179507 0.179904 0.179161 0.180269 0.180334 0.179729 0.180463 0.180591 
0.179785 0.18074 0.180794 0.179834 0.180797 0.180692 0.17957 0.180644 0.180413 
0.180389 0.180327 0.180353 0.180304 0.18012 0.18031 0.180327 0.180331 0.180314 
0.180341 0.180459 0.180285 0.180494 0.180745 0.180848 0.180771 0.181036 0.181318 
0.181348 0.181324 0.181553 0.181719 0.181723 0.182001 0.182237 0.182173 0.18228 
0.182404 0.182454 0.1824 0.182464 0.182525 0.182583 0.182637 0.182619 0.182528 
0.18252 0.182558 0.182512 0.182215 0.182472 0.182277 0.182764 0.182901 0.179729 
0.179651 0.18103 0.180464 0.181195 0.179712 0.180906 0.178864 0.178983 0.178542 
0.17922 0.179169 0.178717 0.179173 0.179285 0.178488 0.179321 0.179406 0.178358 
0.179408 0.179638 0.179657 0.179475 0.179863 0.179921 0.179547 0.179996 0.180055 
0.180071 0.180032 0.180091 0.180231 0.180076 0.180253 0.180521 0.180659 0.180575 
0.180821 0.181121 0.181179 0.181144 0.181376 0.181581 0.181608 0.181599 0.181888 
0.182169 0.182073 0.182181 0.182312 0.182388 0.18232 0.182397 0.182565 0.182647 
0.182662 0.182677 0.182697 0.182618 0.182703 0.182574 0.182622 0.182459 0.182707 
0.182349 0.182806 0.182803 0.183659 0.185984 0.183063 0.181233 0.183528 0.180508 
0.180666 0.180604 0.180669 0.179292 0.180465 0.178226 0.178179 0.178158 0.178243 
0.178126 0.178041 0.178097 0.178231 0.17778 0.178244 0.178644 0.178724 0.178522 
0.179098 0.179301 0.178841 0.179442 0.179658 0.179697 0.179663 0.179819 0.180014 
0.179886 0.18005 0.180321 0.18048 0.180425 0.180641 0.180968 0.181034 0.18101 
0.181232 0.181455 0.18149 0.181479 0.181775 0.182071 0.181976 0.182077 0.182208 
0.182308 0.182242 0.182318 0.182501 0.182652 0.182575 0.182693 0.182721 0.182713 
0.182719 0.182706 0.182681 0.182728 0.182744 0.182759 0.182463 0.182602 0.182485 
0.182793 0.178655 0.188179 0.18919 0.187465 0.185842 0.185041 0.185751 0.185529 
0.183459 0.182242 0.183429 0.180581 0.180442 0.180677 0.180186 0.179086 0.180152 
0.178003 0.177856 0.178179 0.177825 0.177695 0.178041 0.177681 0.17796 0.178017 
0.177939 0.178392 0.178616 0.178311 0.178796 0.178678 0.17915 0.179197 0.179177 
0.17952 0.179781 0.179684 0.179873 0.180177 0.180343 0.180312 0.180539 0.180892 
0.180943 0.180937 0.181156 0.181342 0.18137 0.181382 0.181379 0.181692 0.181967 
0.181891 0.181995 0.182135 0.182228 0.182191 0.182245 0.182431 0.182556 0.182501 
0.182612 0.182716 0.182715 0.182732 0.18271 0.182774 0.182785 0.182811 0.18281 
0.182851 0.182744 0.182858 0.182501 0.182524 0.182791 0.182796 0.178749 0.186366 
0.179831 0.18739 0.18564 0.187002 0.185506 0.185083 0.183189 0.182865 0.183181 
0.18306 0.180725 0.180528 0.180814 0.180071 0.179236 0.180162 0.17829 0.178124 
0.178656 0.178062 0.178594 0.177972 0.177974 0.177979 0.178134 0.178233 0.178249 
0.17838 0.178672 0.178613 0.178681 0.179234 0.179515 0.179471 0.179734 0.180126 
0.18025 0.180237 0.180512 0.180887 0.180892 0.180906 0.180907 0.18116 0.181339 
0.181358 0.181365 0.181654 0.181873 0.181823 0.181947 0.18211 0.182178 0.182167 
0.18221 0.18237 0.182467 0.182432 0.18256 0.182681 0.182706 0.182708 0.18273 
0.182758 0.182796 0.182775 0.182881 0.182961 0.182909 0.182906 0.182915 0.182881 
0.182573 0.182925 0.182529 0.182867 0.182898 0.180571 0.183223 0.180922 0.186567 
0.185609 0.186252 0.184902 0.183286 0.184605 0.183056 0.182984 0.180938 0.180789 
0.180998 0.180289 0.179652 0.180439 0.178917 0.178733 0.179403 0.178683 0.179492 
0.178532 0.17853 0.178669 0.178566 0.178666 0.178984 0.178701 0.179136 0.179326 
0.179329 0.179713 0.180233 0.180209 0.180233 0.180233 0.180565 0.180886 0.180872 
0.180947 0.181233 0.181363 0.181389 0.18144 0.181669 0.181805 0.181778 0.181936 
0.182132 0.182167 0.182171 0.182216 0.182307 0.182331 0.182383 0.182368 0.18253 
0.182682 0.182687 0.182699 0.182701 0.182735 0.182798 0.182775 0.182777 0.182777 
0.182868 0.182961 0.182933 0.182973 0.182932 0.182932 0.182959 0.182935 0.182997 
0.182622 0.182707 0.182657 0.18294 0.18296 0.18148 0.18166 0.181491 0.181644 
0.185576 0.185207 0.185427 0.184309 0.183396 0.184089 0.182974 0.182886 0.181259 
0.18117 0.1813 0.180739 0.18024 0.180894 0.179728 0.179556 0.180234 0.179539 
0.179326 0.179297 0.179624 0.179274 0.179911 0.179383 0.179409 0.179415 0.179892 
0.180238 0.180246 0.180373 0.180711 0.180892 0.180886 0.181042 0.181421 0.181345 
0.18141 0.181417 0.181555 0.181765 0.181722 0.181766 0.181756 0.181956 0.182143 
0.182192 0.182196 0.182198 0.18226 0.182308 0.182329 0.182312 0.18252 0.18267 
0.182632 0.182703 0.182771 0.182804 0.18282 0.182821 0.182908 0.18294 0.182949 
0.182971 0.18304 0.183028 0.183021 0.183038 0.18298 0.182997 0.183026 0.183001 
0.183081 0.18278 0.182861 0.182801 0.182969 0.182975 0.181692 0.181617 0.184612 
0.184553 0.184579 0.183777 0.183728 0.183234 0.183561 0.182839 0.182691 0.181633 
0.181571 0.181648 0.181206 0.180807 0.1813 0.180495 0.180843 0.180293 0.180272 
0.180337 0.180101 0.180062 0.180442 0.18005 0.180682 0.180247 0.180365 0.180377 
0.180594 0.180944 0.180903 0.18094 0.180942 0.181159 0.181422 0.181393 0.181438 
0.181662 0.181771 0.18178 0.181805 0.181981 0.182129 0.182073 0.182199 0.182328 
0.182347 0.182364 0.182374 0.182482 0.182503 0.182582 0.182556 0.182706 0.182853 
0.182834 0.182846 0.182853 0.182887 0.18299 0.182955 0.182955 0.182955 0.183026 
0.183047 0.183076 0.183058 0.183138 0.183095 0.183084 0.183118 0.183051 0.183082 
0.183089 0.183083 0.183143 0.182915 0.182954 0.182942 0.182987 0.182999 0.181604 
0.183508 0.181472 0.183723 0.183044 0.183157 0.182882 0.183003 0.182603 0.182388 
0.181835 0.181777 0.181826 0.181484 0.181135 0.181486 0.180967 0.181109 0.180776 
0.180744 0.180849 0.180686 0.180693 0.180949 0.180695 0.180843 0.180989 0.180984 
0.181058 0.181285 0.181399 0.181391 0.181514 0.181763 0.181735 0.181782 0.181777 
0.181888 0.182003 0.181999 0.182037 0.182018 0.182181 0.182283 0.182389 0.182391 
0.182392 0.182447 0.182485 0.182511 0.182491 0.182691 0.182828 0.182778 0.182892 
0.183078 0.182981 0.183014 0.183035 0.183028 0.183135 0.183085 0.183094 0.183099 
0.183135 0.183145 0.183188 0.183147 0.183209 0.183166 0.183149 0.183181 0.183118 
0.183147 0.183152 0.183152 0.183196 0.183032 0.183036 0.183043 0.183149 0.183027 
0.183041 0.18309 0.181414 0.182681 0.181268 0.182961 0.182435 0.182596 0.182436 
0.182421 0.182276 0.182002 0.181801 0.181734 0.181762 0.181524 0.181203 0.181436 
0.181137 0.181048 0.181037 0.181091 0.181051 0.181209 0.1811 0.181122 0.18112 
0.181199 0.181313 0.181369 0.181372 0.181371 0.181586 0.181757 0.181698 0.181791 
0.181942 0.182004 0.181991 0.182038 0.182124 0.182151 0.182249 0.182187 0.182332 
0.182442 0.182496 0.182514 0.182519 0.18256 0.18265 0.182647 0.182679 0.182663 
0.18289 0.183068 0.183006 0.18309 0.183258 0.183132 0.18316 0.183193 0.183167 
0.183274 0.183211 0.183217 0.183227 0.183229 0.183221 0.183271 0.183222 0.183284 
0.183235 0.183229 0.183242 0.183309 0.1832 0.183213 0.183223 0.183347 0.183238 
0.183189 0.183283 0.183187 0.183114 0.183289 0.183107 0.183221 0.181139 0.182159 
0.180941 0.182373 0.181994 0.182033 0.181968 0.181857 0.181909 0.181596 0.181598 
0.181521 0.181523 0.181386 0.181232 0.181093 0.181094 0.181092 0.181156 0.181207 
0.181161 0.181241 0.181337 0.1813 0.181349 0.181319 0.181397 0.181484 0.181574 
0.181635 0.181604 0.181785 0.181895 0.181967 0.181979 0.181974 0.182066 0.182123 
0.182113 0.182127 0.182267 0.18242 0.182326 0.182463 0.182595 0.182601 0.182643 
0.182648 0.18269 0.18283 0.182846 0.182912 0.182881 0.18309 0.183252 0.1832 
0.183266 0.183423 0.183294 0.183311 0.18335 0.18331 0.18339 0.183315 0.183315 
0.183317 0.183401 0.183315 0.183308 0.183343 0.183305 0.183316 0.18335 0.183321 
0.183348 0.183398 0.183348 0.183456 0.183425 0.183423 0.183436 0.183526 0.18342 
0.183407 0.183438 0.183516 0.183344 0.183353 0.183382 0.183409 0.180812 0.181896 
0.180614 0.181979 0.181546 0.181548 0.18138 0.181542 0.181266 0.181303 0.181229 
0.181216 0.18117 0.181041 0.181029 0.181056 0.181018 0.181181 0.181335 0.181199 
0.181338 0.181402 0.181485 0.181445 0.18151 0.181718 0.181837 0.181783 0.18193 
0.182086 0.182077 0.182105 0.182102 0.182154 0.182234 0.182227 0.182255 0.182244 
0.182393 0.182586 0.182493 0.182604 0.182794 0.182745 0.182818 0.182822 0.182866 
0.183033 0.183046 0.183107 0.183081 0.18328 0.183409 0.183377 0.183437 0.183562 
0.183465 0.183464 0.183495 0.183654 0.183454 0.183436 0.18351 0.183429 0.183501 
0.183391 0.183391 0.183391 0.183514 0.183401 0.18341 0.183419 0.183547 0.18344 
0.183462 0.183472 0.183628 0.183499 0.183518 0.183526 0.183678 0.183561 0.183555 
0.183572 0.183666 0.183725 0.183562 0.183555 0.183565 0.183449 0.183631 0.183665 
0.183432 0.18349 0.183496 0.183491 0.180502 0.180322 0.181696 0.181646 0.181665 
0.181198 0.181254 0.181099 0.181258 0.181058 0.181022 0.181013 0.181015 0.180999 
0.181018 0.181108 0.181031 0.181228 0.181333 0.181404 0.181427 0.181423 0.181508 
0.181608 0.181624 0.181628 0.181626 0.181881 0.182059 0.182003 0.182105 0.182353 
0.182212 0.182247 0.182273 0.182276 0.182434 0.182382 0.182437 0.182425 0.182574 
0.182791 0.182724 0.182798 0.183031 0.182943 0.183024 0.183034 0.183083 0.183256 
0.183248 0.183275 0.183264 0.183436 0.183454 0.183533 0.183513 0.183588 0.183653 
0.18367 0.183656 0.183753 0.183641 0.183629 0.183663 0.183821 0.183626 0.183612 
0.183677 0.183891 0.183645 0.183643 0.183731 0.183962 0.183688 0.183722 0.183809 
0.184 0.18377 0.183805 0.183879 0.183936 0.183777 0.183785 0.183813 0.183729 
0.183797 0.183784 0.183724 0.183684 0.183708 0.183709 0.183721 0.183668 0.183644 
0.183669 0.183551 0.183689 0.183696 0.183683 0.183702 0.183519 0.183529 0.183493 
0.183496 0.183485 0.183444 0.183457 0.183383 0.180271 0.180176 0.181334 0.181247 
0.181257 0.181065 0.18101 0.181097 0.181064 0.181092 0.180959 0.180999 0.180975 
0.180999 0.181111 0.181294 0.181182 0.181363 0.181536 0.181596 0.181604 0.181667 
0.181856 0.181836 0.181902 0.181888 0.182106 0.182351 0.182331 0.182356 0.182418 
0.182463 0.182539 0.182479 0.182732 0.182623 0.182692 0.18269 0.182825 0.183026 
0.182995 0.183042 0.18328 0.183196 0.183259 0.183272 0.183334 0.183438 0.183468 
0.183453 0.183615 0.183589 0.183616 0.183606 0.183712 0.183699 0.183732 0.183729 
0.183792 0.183774 0.183812 0.183822 0.183863 0.183833 0.183882 0.183895 0.183944 
0.1839 0.18395 0.183954 0.184045 0.183972 0.18399 0.184001 0.184107 0.183991 
0.183954 0.183979 0.184046 0.184077 0.183884 0.183871 0.183878 0.183824 0.183922 
0.183914 0.183888 0.183793 0.183775 0.183802 0.183735 0.183792 0.183783 0.183795 
0.183709 0.1837 0.183704 0.183695 0.183714 0.183702 0.183714 0.18369 0.183701 
0.183649 0.183695 0.183619 0.183661 0.183549 0.183665 0.183504 0.183632 0.183395 
0.183614 0.183601 0.183626 0.183385 0.183388 0.183379 0.180173 0.181014 0.181011 
0.180954 0.181007 0.181031 0.180992 0.181043 0.180976 0.181085 0.181139 0.181179 
0.181166 0.181287 0.181441 0.181581 0.181582 0.181583 0.18175 0.181856 0.181899 
0.1819 0.182221 0.182142 0.182279 0.182261 0.182445 0.18273 0.182667 0.182674 
0.182692 0.182715 0.182771 0.182878 0.182783 0.183056 0.18293 0.182987 0.182988 
0.183118 0.183274 0.183249 0.183311 0.183473 0.18347 0.183494 0.1835 0.183669 
0.18359 0.183637 0.183657 0.183693 0.183733 0.183785 0.183768 0.183808 0.183915 
0.183827 0.183877 0.184048 0.183889 0.183976 0.184182 0.184562 0.183995 0.184117 
0.184298 0.184511 0.184143 0.184227 0.184342 0.184367 0.184217 0.184227 0.184271 
0.18409 0.184182 0.184123 0.184059 0.183967 0.184008 0.1839 0.183994 0.183991 
0.183941 0.18389 0.183858 0.183893 0.183817 0.183876 0.183856 0.18386 0.18381 
0.183835 0.183766 0.18376 0.183762 0.18375 0.183777 0.183721 0.183749 0.183667 
0.183735 0.183723 0.183699 0.183718 0.183665 0.183665 0.183666 0.183629 0.183634 
0.183638 0.18364 0.180237 0.180397 0.180244 0.180903 0.180823 0.181007 0.181009 
0.181005 0.181063 0.181086 0.181068 0.181093 0.181335 0.181446 0.181381 0.181522 
0.181707 0.181832 0.181884 0.181884 0.182047 0.182221 0.18226 0.182229 0.182541 
0.18272 0.182696 0.182833 0.183118 0.183008 0.183022 0.183057 0.183052 0.183101 
0.183221 0.183109 0.183367 0.183225 0.183256 0.183258 0.183376 0.183468 0.183457 
0.183526 0.183665 0.183623 0.183681 0.183774 0.183827 0.183832 0.183837 0.183954 
0.18398 0.183993 0.184013 0.184158 0.184163 0.184181 0.184217 0.184336 0.184362 
0.184382 0.184415 0.184561 0.184445 0.184561 0.184491 0.184443 0.184414 0.18446 
0.184353 0.184355 0.184414 0.184488 0.184243 0.184227 0.184231 0.184203 0.184309 
0.184263 0.184175 0.184144 0.184139 0.184149 0.184025 0.184076 0.183957 0.184067 
0.184058 0.183986 0.18402 0.18395 0.18394 0.183962 0.183882 0.183915 0.183833 
0.183904 0.183836 0.18388 0.183837 0.183828 0.183837 0.18382 0.183758 0.183767 
0.183757 0.183784 0.18376 0.183798 0.180303 0.180636 0.180542 0.180807 0.180959 
0.181014 0.180966 0.181076 0.181187 0.181252 0.181226 0.181479 0.181703 0.181671 
0.181725 0.182078 0.18222 0.182234 0.182357 0.182619 0.182675 0.182671 0.182934 
0.183123 0.183152 0.18319 0.183326 0.183343 0.183373 0.183374 0.183418 0.183485 
0.183427 0.183568 0.183501 0.183505 0.183505 0.183605 0.183641 0.183628 0.183708 
0.183772 0.183735 0.183829 0.183934 0.183868 0.183988 0.184118 0.184031 0.184175 
0.184271 0.184192 0.184217 0.184328 0.184361 0.184317 0.184413 0.184364 0.184361 
0.184356 0.184465 0.184534 0.184632 0.184496 0.184543 0.184576 0.184488 0.184497 
0.184346 0.184437 0.184301 0.184324 0.184225 0.184308 0.184296 0.18421 0.18421 
0.184219 0.184083 0.184108 0.184024 0.184075 0.184021 0.184053 0.183932 0.183968 
0.18399 0.1839 0.183906 0.183897 0.183913 0.183836 0.183837 0.183842 0.183836 
0.180689 0.180751 0.180821 0.180729 0.180983 0.181215 0.181229 0.181211 0.181394 
0.18165 0.18141 0.181723 0.182022 0.182167 0.182066 0.182389 0.182514 0.182686 
0.182692 0.182688 0.183015 0.183179 0.1831 0.183294 0.183464 0.183493 0.183496 
0.183499 0.18354 0.183558 0.183594 0.183565 0.183592 0.183648 0.183594 0.183686 
0.183641 0.183645 0.183645 0.18371 0.18373 0.183722 0.183798 0.183844 0.183817 
0.183919 0.183979 0.183939 0.184073 0.184111 0.18408 0.184217 0.184206 0.184219 
0.184415 0.184418 0.184474 0.184556 0.184565 0.184631 0.184536 0.184623 0.184482 
0.184458 0.18435 0.184402 0.184354 0.184381 0.18441 0.184297 0.184308 0.18419 