# vtk DataFile Version 5.1
vtk output
ASCII
DATASET STRUCTURED_GRID
DIMENSIONS 49 17 55
POINTS 45815 float
4.5 0.34 0.5 4.5 0.343 0.5 4.5 0.346473 0.5 
4.5 0.350489 0.5 4.5 0.355125 0.5 4.5 0.360467 0.5 
4.5 0.366609 0.5 4.5 0.373653 0.5 4.5 0.38171 0.5 
4.5 0.390895 0.5 4.5 0.401329 0.5 4.5 0.41313 0.5 
4.5 0.426418 0.5 4.5 0.441298 0.5 4.5 0.457864 0.5 
4.5 0.476185 0.5 4.5 0.4963 0.5 4.5 0.518208 0.5 
4.5 0.541861 0.5 4.5 0.567161 0.5 4.5 0.593949 0.5 
4.5 0.622014 0.5 4.5 0.651089 0.5 4.5 0.680865 0.5 
4.5 0.711 0.5 4.5 0.741134 0.5 4.5 0.77091 0.5 
4.5 0.799985 0.5 4.5 0.82805 0.5 4.5 0.854839 0.5 
4.5 0.880138 0.5 4.5 0.903792 0.5 4.5 0.9257 0.5 
4.5 0.945815 0.5 4.5 0.964136 0.5 4.5 0.980702 0.5 
4.5 0.995582 0.5 4.5 1.00887 0.5 4.5 1.02067 0.5 
4.5 1.0311 0.5 4.5 1.04029 0.5 4.5 1.04835 0.5 
4.5 1.05539 0.5 4.5 1.06153 0.5 4.5 1.06687 0.5 
4.5 1.07151 0.5 4.5 1.07553 0.5 4.5 1.079 0.5 
4.5 1.082 0.5 4.53957 0.334126 0.5 4.53957 0.337126 0.5 
4.53957 0.3406 0.5 4.53957 0.34462 0.5 4.53957 0.349262 0.5 
4.53958 0.354613 0.5 4.53958 0.360769 0.5 4.53959 0.367833 0.5 
4.53959 0.375916 0.5 4.5396 0.385137 0.5 4.5396 0.395616 0.5 
4.53961 0.407476 0.5 4.53962 0.420837 0.5 4.53962 0.435808 0.5 
4.53963 0.452486 0.5 4.53965 0.470941 0.5 4.53966 0.491214 0.5 
4.53967 0.513308 0.5 4.53968 0.537174 0.5 4.5397 0.562713 0.5 
4.53971 0.589767 0.5 4.53973 0.618121 0.5 4.53975 0.647503 0.5 
4.53977 0.6776 0.5 4.53978 0.708062 0.5 4.5398 0.738525 0.5 
4.53982 0.768622 0.5 4.53983 0.798005 0.5 4.53985 0.826358 0.5 
4.53987 0.853413 0.5 4.53988 0.878953 0.5 4.5399 0.90282 0.5 
4.53991 0.924914 0.5 4.53992 0.945188 0.5 4.53993 0.963643 0.5 
4.53994 0.98032 0.5 4.53995 0.995291 0.5 4.53996 1.00865 0.5 
4.53996 1.02051 0.5 4.53997 1.03099 0.5 4.53998 1.04021 0.5 
4.53998 1.04829 0.5 4.53998 1.05536 0.5 4.53999 1.06151 0.5 
4.53999 1.06686 0.5 4.53999 1.07151 0.5 4.54 1.07552 0.5 
4.54 1.079 0.5 4.54 1.082 0.5 4.5792 0.328241 0.5 
4.5792 0.331241 0.5 4.5792 0.334718 0.5 4.57921 0.338741 0.5 
4.57921 0.343389 0.5 4.57922 0.34875 0.5 4.57923 0.354919 0.5 
4.57923 0.362003 0.5 4.57924 0.370113 0.5 4.57925 0.379369 0.5 
4.57927 0.389894 0.5 4.57928 0.401812 0.5 4.57929 0.415247 0.5 
4.57931 0.43031 0.5 4.57933 0.447099 0.5 4.57935 0.465688 0.5 
4.57937 0.486121 0.5 4.57939 0.5084 0.5 4.57942 0.532479 0.5 
4.57945 0.558259 0.5 4.57948 0.585579 0.5 4.57951 0.614221 0.5 
4.57954 0.643912 0.5 4.57957 0.67433 0.5 4.57961 0.705121 0.5 
4.57964 0.735911 0.5 4.57967 0.76633 0.5 4.57971 0.796021 0.5 
4.57974 0.824664 0.5 4.57977 0.851985 0.5 4.5798 0.877766 0.5 
4.57982 0.901846 0.5 4.57985 0.924126 0.5 4.57987 0.944559 0.5 
4.57989 0.963148 0.5 4.57991 0.979937 0.5 4.57992 0.995 0.5 
4.57994 1.00843 0.5 4.57995 1.02035 0.5 4.57996 1.03088 0.5 
4.57997 1.04013 0.5 4.57998 1.04824 0.5 4.57999 1.05533 0.5 
4.58 1.06149 0.5 4.58 1.06685 0.5 4.58001 1.0715 0.5 
4.58001 1.07552 0.5 4.58002 1.079 0.5 4.58002 1.082 0.5 
4.61889 0.322348 0.5 4.6189 0.325348 0.5 4.6189 0.328826 0.5 
4.61891 0.332853 0.5 4.61891 0.337507 0.5 4.61892 0.342877 0.5 
4.61893 0.349061 0.5 4.61894 0.356164 0.5 4.61896 0.3643 0.5 
4.61897 0.373591 0.5 4.61899 0.384162 0.5 4.619 0.39614 0.5 
4.61902 0.409648 0.5 4.61905 0.424803 0.5 4.61907 0.441703 0.5 
4.6191 0.460427 0.5 4.61913 0.481019 0.5 4.61917 0.503484 0.5 
4.61921 0.527777 0.5 4.61925 0.553797 0.5 4.61929 0.581384 0.5 
4.61933 0.610316 0.5 4.61938 0.640315 0.5 4.61942 0.671054 0.5 
4.61947 0.702174 0.5 4.61952 0.733293 0.5 4.61957 0.764034 0.5 
4.61961 0.794033 0.5 4.61966 0.822967 0.5 4.6197 0.850555 0.5 
4.61974 0.876576 0.5 4.61978 0.90087 0.5 4.61981 0.923336 0.5 
4.61984 0.943929 0.5 4.61987 0.962653 0.5 4.6199 0.979554 0.5 
4.61992 0.994708 0.5 4.61994 1.00822 0.5 4.61996 1.02019 0.5 
4.61998 1.03076 0.5 4.61999 1.04005 0.5 4.62 1.04819 0.5 
4.62001 1.05529 0.5 4.62002 1.06147 0.5 4.62003 1.06684 0.5 
4.62004 1.0715 0.5 4.62004 1.07552 0.5 4.62005 1.079 0.5 
4.62006 1.082 0.5 4.65864 0.316446 0.5 4.65865 0.319446 0.5 
4.65866 0.322925 0.5 4.65866 0.326955 0.5 4.65867 0.331616 0.5 
4.65868 0.336996 0.5 4.65869 0.343193 0.5 4.65871 0.350316 0.5 
4.65872 0.358479 0.5 4.65874 0.367806 0.5 4.65876 0.378423 0.5 
4.65879 0.390459 0.5 4.65881 0.404041 0.5 4.65884 0.419288 0.5 
4.65887 0.4363 0.5 4.65891 0.455158 0.5 4.65895 0.47591 0.5 
4.65899 0.498561 0.5 4.65904 0.523068 0.5 4.65909 0.549329 0.5 
4.65914 0.577183 0.5 4.6592 0.606405 0.5 4.65926 0.636712 0.5 
4.65932 0.667774 0.5 4.65938 0.699223 0.5 4.65944 0.730672 0.5 
4.6595 0.761734 0.5 4.65955 0.792043 0.5 4.65961 0.821266 0.5 
4.65966 0.849122 0.5 4.65971 0.875384 0.5 4.65976 0.899892 0.5 
4.6598 0.922545 0.5 4.65984 0.943297 0.5 4.65988 0.962156 0.5 
4.65991 0.979169 0.5 4.65994 0.994415 0.5 4.65997 1.008 0.5 
4.65999 1.02003 0.5 4.66001 1.03065 0.5 4.66003 1.03997 0.5 
4.66004 1.04814 0.5 4.66006 1.05526 0.5 4.66007 1.06146 0.5 
4.66008 1.06683 0.5 4.66009 1.07149 0.5 4.6601 1.07552 0.5 
4.6601 1.079 0.5 4.66011 1.082 0.5 4.69845 0.310535 0.5 
4.69846 0.313535 0.5 4.69847 0.317016 0.5 4.69848 0.321049 0.5 
4.69849 0.325716 0.5 4.6985 0.331106 0.5 4.69851 0.337317 0.5 
4.69853 0.34446 0.5 4.69855 0.35265 0.5 4.69857 0.362011 0.5 
4.6986 0.372675 0.5 4.69862 0.38477 0.5 4.69865 0.398426 0.5 
4.69869 0.413764 0.5 4.69872 0.430889 0.5 4.69877 0.449882 0.5 
4.69881 0.470794 0.5 4.69887 0.493631 0.5 4.69892 0.518352 0.5 
4.69898 0.544855 0.5 4.69904 0.572976 0.5 4.69911 0.602488 0.5 
4.69918 0.633105 0.5 4.69925 0.664489 0.5 4.69932 0.696267 0.5 
4.69939 0.728046 0.5 4.69946 0.759431 0.5 4.69953 0.790049 0.5 
4.69959 0.819563 0.5 4.69966 0.847686 0.5 4.69971 0.874191 0.5 
4.69977 0.898913 0.5 4.69982 0.921752 0.5 4.69987 0.942665 0.5 
4.69991 0.961659 0.5 4.69995 0.978783 0.5 4.69998 0.994121 0.5 
4.70001 1.00778 0.5 4.70004 1.01987 0.5 4.70006 1.03053 0.5 
4.70009 1.03989 0.5 4.7001 1.04808 0.5 4.70012 1.05522 0.5 
4.70013 1.06143 0.5 4.70015 1.06682 0.5 4.70016 1.07149 0.5 
4.70017 1.07552 0.5 4.70017 1.079 0.5 4.70018 1.082 0.5 
4.73832 0.304616 0.5 4.73833 0.307616 0.5 4.73834 0.311098 0.5 
4.73835 0.315135 0.5 4.73836 0.319808 0.5 4.73837 0.325207 0.5 
4.73839 0.331433 0.5 4.73841 0.338595 0.5 4.73843 0.346812 0.5 
4.73845 0.356209 0.5 4.73848 0.366918 0.5 4.73851 0.379073 0.5 
4.73854 0.392803 0.5 4.73858 0.408233 0.5 4.73862 0.42547 0.5 
4.73867 0.444599 0.5 4.73873 0.46567 0.5 4.73878 0.488695 0.5 
4.73885 0.51363 0.5 4.73891 0.540374 0.5 4.73898 0.568762 0.5 
4.73906 0.598565 0.5 4.73913 0.629492 0.5 4.73921 0.661199 0.5 
4.73929 0.693308 0.5 4.73937 0.725416 0.5 4.73945 0.757125 0.5 
4.73953 0.788053 0.5 4.7396 0.817858 0.5 4.73968 0.846249 0.5 
4.73974 0.872995 0.5 4.7398 0.897932 0.5 4.73986 0.920958 0.5 
4.73991 0.942031 0.5 4.73996 0.96116 0.5 4.74001 0.978397 0.5 
4.74004 0.993827 0.5 4.74008 1.00756 0.5 4.74011 1.01971 0.5 
4.74014 1.03042 0.5 4.74016 1.03981 0.5 4.74018 1.04803 0.5 
4.7402 1.05519 0.5 4.74021 1.06141 0.5 4.74023 1.06681 0.5 
4.74024 1.07148 0.5 4.74025 1.07552 0.5 4.74026 1.079 0.5 
4.74027 1.082 0.5 4.77824 0.298689 0.5 4.77825 0.301689 0.5 
4.77826 0.305173 0.5 4.77827 0.309213 0.5 4.77828 0.313892 0.5 
4.7783 0.319301 0.5 4.77832 0.325541 0.5 4.77833 0.332723 0.5 
4.77836 0.340966 0.5 4.77838 0.350399 0.5 4.77841 0.361155 0.5 
4.77845 0.373368 0.5 4.77848 0.387173 0.5 4.77853 0.402695 0.5 
4.77857 0.420044 0.5 4.77863 0.439308 0.5 4.77868 0.46054 0.5 
4.77875 0.483752 0.5 4.77881 0.508901 0.5 4.77889 0.535887 0.5 
4.77896 0.564544 0.5 4.77905 0.594638 0.5 4.77913 0.625875 0.5 
4.77922 0.657906 0.5 4.77931 0.690344 0.5 4.77939 0.722783 0.5 
4.77948 0.754815 0.5 4.77956 0.786054 0.5 4.77965 0.81615 0.5 
4.77972 0.844809 0.5 4.7798 0.871797 0.5 4.77986 0.896949 0.5 
4.77993 0.920162 0.5 4.77999 0.941395 0.5 4.78004 0.96066 0.5 
4.78009 0.978009 0.5 4.78013 0.993531 0.5 4.78017 1.00733 0.5 
4.7802 1.01955 0.5 4.78023 1.0303 0.5 4.78025 1.03973 0.5 
4.78028 1.04798 0.5 4.7803 1.05516 0.5 4.78031 1.0614 0.5 
4.78033 1.0668 0.5 4.78034 1.07148 0.5 4.78035 1.07552 0.5 
4.78036 1.079 0.5 4.78037 1.082 0.5 4.81821 0.292755 0.5 
4.81822 0.295754 0.5 4.81823 0.29924 0.5 4.81824 0.303284 0.5 
4.81826 0.307969 0.5 4.81827 0.313387 0.5 4.81829 0.319641 0.5 
4.81831 0.326843 0.5 4.81834 0.335113 0.5 4.81836 0.344582 0.5 
4.8184 0.355384 0.5 4.81843 0.367656 0.5 4.81847 0.381535 0.5 
4.81852 0.39715 0.5 4.81857 0.414612 0.5 4.81862 0.434011 0.5 
4.81868 0.455403 0.5 4.81875 0.478802 0.5 4.81882 0.504167 0.5 
4.8189 0.531395 0.5 4.81898 0.56032 0.5 4.81907 0.590706 0.5 
4.81916 0.622253 0.5 4.81926 0.654607 0.5 4.81935 0.687377 0.5 
4.81944 0.720147 0.5 4.81954 0.752503 0.5 4.81963 0.784051 0.5 
4.81971 0.814439 0.5 4.8198 0.843367 0.5 4.81987 0.870598 0.5 
4.81995 0.895964 0.5 4.82002 0.919365 0.5 4.82008 0.940759 0.5 
4.82013 0.960159 0.5 4.82018 0.977621 0.5 4.82023 0.993235 0.5 
4.82027 1.00711 0.5 4.8203 1.01938 0.5 4.82034 1.03019 0.5 
4.82036 1.03965 0.5 4.82039 1.04792 0.5 4.82041 1.05512 0.5 
4.82043 1.06137 0.5 4.82044 1.06679 0.5 4.82046 1.07147 0.5 
4.82047 1.07552 0.5 4.82048 1.079 0.5 4.82049 1.082 0.5 
4.85823 0.286813 0.5 4.85824 0.289813 0.5 4.85825 0.293299 0.5 
4.85826 0.297347 0.5 4.85828 0.302038 0.5 4.85829 0.307466 0.5 
4.85831 0.313734 0.5 4.85834 0.320956 0.5 4.85836 0.329253 0.5 
4.85839 0.338757 0.5 4.85842 0.349605 0.5 4.85846 0.361937 0.5 
4.8585 0.375891 0.5 4.85855 0.391598 0.5 4.8586 0.409172 0.5 
4.85866 0.428707 0.5 4.85873 0.450261 0.5 4.8588 0.473847 0.5 
4.85887 0.499426 0.5 4.85895 0.526898 0.5 4.85904 0.556091 0.5 
4.85913 0.586769 0.5 4.85923 0.618626 0.5 4.85933 0.651305 0.5 
4.85943 0.684406 0.5 4.85952 0.717507 0.5 4.85962 0.750187 0.5 
4.85972 0.782047 0.5 4.85981 0.812727 0.5 4.85989 0.841923 0.5 
4.85998 0.869397 0.5 4.86005 0.894978 0.5 4.86013 0.918567 0.5 
4.86019 0.940122 0.5 4.86025 0.959657 0.5 4.8603 0.977232 0.5 
4.86035 0.992938 0.5 4.86039 1.00689 0.5 4.86043 1.01922 0.5 
4.86046 1.03007 0.5 4.86049 1.03957 0.5 4.86051 1.04787 0.5 
[...]
POINT_DATA 45815
FIELD FieldData 5
pressure 1 45815 float
0.178573 0.135663 0.135911 0.136037 0.136109 0.136221 0.136352 0.136436 0.136612 
0.136859 0.137236 0.137713 0.138321 0.139047 0.139996 0.141164 0.142478 0.143873 
0.145275 0.146827 0.148797 0.151833 0.161834 0.168302 0.180294 0.193647 0.208616 
0.220485 0.22822 0.231034 0.229567 0.2271 0.224494 0.22194 0.220397 0.218661 
0.218164 0.217587 0.217116 0.217163 0.217077 0.217342 0.217237 0.217428 0.21731 
0.217458 0.217404 0.217391 0.217434 0.178573 0.107636 0.109152 0.110976 0.113624 
0.117051 0.120856 0.124775 0.128341 0.131393 0.133554 0.135082 0.136337 0.137588 
0.138823 0.14001 0.141088 0.142203 0.143287 0.144631 0.146547 0.150206 0.156256 
0.162834 0.172191 0.18445 0.197911 0.209625 0.216651 0.220262 0.220953 0.219752 
0.218149 0.216627 0.215568 0.214849 0.214582 0.214519 0.214524 0.214397 0.214178 
0.213916 0.213599 0.213221 0.212891 0.212523 0.212313 0.212073 0.212106 0.178573 
0.105961 0.106441 0.106657 0.106942 0.107583 0.108848 0.111201 0.114628 0.118888 
0.123699 0.128401 0.132368 0.135181 0.137156 0.138615 0.139812 0.140917 0.142194 
0.143819 0.14649 0.150809 0.157209 0.165215 0.176363 0.18943 0.201841 0.210609 
0.214574 0.215135 0.213574 0.211576 0.209875 0.208765 0.208231 0.208255 0.208461 
0.208939 0.20951 0.209907 0.210073 0.210111 0.210159 0.210254 0.210416 0.210529 
0.210644 0.210637 0.210714 0.178573 0.105145 0.105339 0.105512 0.105434 0.10551 
0.105676 0.106296 0.107545 0.109956 0.11371 0.118548 0.123929 0.129013 0.13323 
0.136171 0.138062 0.139549 0.141137 0.143384 0.146502 0.151737 0.15886 0.168773 
0.181011 0.194438 0.20502 0.211091 0.212366 0.210645 0.207978 0.205557 0.203809 
0.202704 0.202346 0.202327 0.202683 0.203296 0.204134 0.205012 0.205864 0.206535 
0.207089 0.20752 0.207819 0.207997 0.208075 0.208099 0.20814 0.178573 0.104997 
0.105043 0.105138 0.105041 0.104931 0.104871 0.10492 0.105248 0.10605 0.107641 
0.110747 0.115119 0.120523 0.126039 0.131047 0.13498 0.137674 0.140095 0.142714 
0.146848 0.152553 0.161631 0.172234 0.185897 0.197953 0.206625 0.210206 0.209535 
0.206707 0.203665 0.20118 0.199285 0.198285 0.197845 0.198003 0.198569 0.199543 
0.200481 0.201457 0.202293 0.203019 0.203594 0.203982 0.204291 0.204395 0.204534 
0.204475 0.204559 0.178573 0.105391 0.105351 0.105423 0.105281 0.105189 0.105018 
0.104864 0.104772 0.104876 0.105416 0.106659 0.108994 0.112928 0.118241 0.124095 
0.129621 0.134477 0.13823 0.142245 0.146897 0.154577 0.164088 0.176826 0.188992 
0.199604 0.205713 0.207269 0.205248 0.202269 0.199439 0.196967 0.195546 0.194542 
0.194391 0.194728 0.195572 0.196338 0.197206 0.197943 0.198576 0.199121 0.199484 
0.199798 0.199944 0.20008 0.200117 0.200122 0.200124 0.178573 0.1065 0.106469 
0.106243 0.106125 0.105963 0.105706 0.10542 0.105066 0.104851 0.104736 0.1051 
0.106052 0.108143 0.111765 0.117072 0.123241 0.129374 0.13538 0.140956 0.14815 
0.156534 0.168405 0.179813 0.191553 0.199096 0.202808 0.202195 0.199625 0.196786 
0.194206 0.19276 0.191746 0.191561 0.191661 0.192395 0.192878 0.19353 0.193932 
0.194338 0.194622 0.194837 0.195034 0.195127 0.195254 0.195288 0.195372 0.195356 
0.195351 0.178573 0.108336 0.108528 0.108145 0.107877 0.107589 0.107193 0.106692 
0.106148 0.105561 0.105173 0.104907 0.105134 0.10591 0.107896 0.111529 0.11709 
0.123974 0.131458 0.139864 0.148931 0.160211 0.171499 0.183145 0.19176 0.196844 
0.198053 0.196242 0.193405 0.190649 0.189281 0.188431 0.188567 0.188821 0.189669 
0.190036 0.190506 0.190628 0.190766 0.190749 0.190762 0.190749 0.190737 0.190766 
0.19081 0.190823 0.190946 0.190889 0.190918 0.178573 0.111383 0.111667 0.111602 
0.11087 0.110397 0.109762 0.109047 0.108147 0.107268 0.106387 0.10575 0.105343 
0.105399 0.106183 0.108433 0.112688 0.119279 0.128052 0.138254 0.150428 0.162656 
0.175097 0.184252 0.19056 0.193239 0.192548 0.189942 0.186996 0.185463 0.184671 
0.185074 0.185544 0.186679 0.187248 0.18774 0.187787 0.187773 0.187589 0.187447 
0.187251 0.187148 0.187079 0.187061 0.187045 0.187103 0.187144 0.187177 0.187122 
0.178573 0.114996 0.115215 0.115517 0.115268 0.114301 0.113438 0.112415 0.111281 
0.109912 0.108646 0.107414 0.106537 0.106047 0.106177 0.107449 0.110666 0.11672 
0.12575 0.137628 0.150836 0.164865 0.176497 0.184498 0.188631 0.18883 0.186631 
0.183556 0.181766 0.180967 0.181488 0.182164 0.183475 0.184238 0.184891 0.18508 
0.18507 0.184905 0.184695 0.184439 0.184269 0.184134 0.184079 0.183997 0.184069 
0.184024 0.184182 0.184103 0.184156 0.178573 0.118825 0.118929 0.119151 0.119417 
0.119124 0.117952 0.116736 0.115331 0.113755 0.111921 0.110231 0.108731 0.107749 
0.107512 0.108258 0.110968 0.1163 0.125256 0.137255 0.151133 0.164706 0.176033 
0.182956 0.185355 0.183936 0.180711 0.178375 0.177306 0.177771 0.178718 0.180151 
0.181119 0.1819 0.182241 0.182336 0.182293 0.182125 0.181962 0.181747 0.181609 
0.18152 0.181437 0.181472 0.181444 0.181527 0.181553 0.181566 0.181558 0.178573 
0.123063 0.12302 0.12307 0.123265 0.123514 0.12321 0.121887 0.120311 0.118599 
0.116547 0.114365 0.112316 0.110832 0.110138 0.110829 0.113075 0.118019 0.126041 
0.137588 0.150524 0.163529 0.173808 0.179624 0.181018 0.178829 0.176153 0.174325 
0.174279 0.175265 0.176777 0.17792 0.178849 0.179325 0.179485 0.179561 0.179455 
0.179442 0.179266 0.179146 0.179082 0.179 0.179041 0.178998 0.179113 0.179083 
0.179218 0.17916 0.179172 0.178573 0.127184 0.127238 0.127185 0.127251 0.127365 
0.127768 0.127368 0.125946 0.124126 0.122244 0.119931 0.117722 0.115674 0.114721 
0.114914 0.117124 0.121113 0.128167 0.137814 0.149513 0.160818 0.169734 0.174629 
0.17556 0.174255 0.172345 0.171618 0.172216 0.173496 0.174757 0.175749 0.176348 
0.176509 0.176674 0.176591 0.176692 0.176575 0.176489 0.1765 0.1764 0.176467 
0.176429 0.176555 0.176561 0.176657 0.176686 0.176657 0.176668 0.178573 0.130064 
0.130082 0.130167 0.130183 0.130288 0.130354 0.13099 0.130396 0.129209 0.127706 
0.126197 0.124226 0.12253 0.121029 0.121045 0.122198 0.125531 0.130485 0.138274 
0.147551 0.157011 0.164766 0.16911 0.170541 0.170286 0.170039 0.170117 0.170854 
0.171906 0.17279 0.173372 0.173536 0.173718 0.173604 0.173679 0.173574 0.173521 
0.173591 0.173477 0.173617 0.173563 0.17377 0.173783 0.173968 0.173966 0.17409 
0.174073 0.174144 0.178573 0.131037 0.13112 0.131174 0.131333 0.13149 0.131535 
0.131593 0.132116 0.131897 0.131697 0.131236 0.130908 0.129942 0.129146 0.1283 
0.128924 0.130301 0.13357 0.138237 0.145282 0.152571 0.158838 0.162866 0.165027 
0.166687 0.167784 0.168726 0.169546 0.170026 0.170433 0.170391 0.170426 0.170286 
0.170329 0.170299 0.170318 0.170463 0.170421 0.170663 0.170612 0.170912 0.170932 
0.171207 0.171278 0.171447 0.171508 0.171565 0.171792 0.178573 0.131437 0.131301 
0.131509 0.131433 0.131579 0.131355 0.13108 0.131416 0.131956 0.132913 0.133946 
0.134933 0.136077 0.136143 0.136081 0.135391 0.135597 0.13628 0.138883 0.142904 
0.148268 0.153561 0.157625 0.160861 0.163508 0.165793 0.167237 0.167848 0.168122 
0.167758 0.167503 0.167136 0.166872 0.166712 0.166532 0.166559 0.166445 0.166826 
0.166952 0.167593 0.16783 0.168415 0.16869 0.169098 0.16927 0.16958 0.169709 
0.169851 0.178573 0.133762 0.133784 0.133852 0.134012 0.134061 0.134286 0.134332 
0.134576 0.135159 0.136498 0.137981 0.139916 0.141707 0.143311 0.14385 0.143765 
0.142361 0.141356 0.140769 0.141914 0.143932 0.14683 0.150333 0.154054 0.158319 
0.161508 0.163448 0.164081 0.163812 0.163036 0.16242 0.162056 0.162087 0.162259 
0.162948 0.163698 0.16491 0.165696 0.16678 0.167246 0.167937 0.16824 0.168628 
0.168914 0.169345 0.169712 0.169817 0.169775 0.135663 0.135663 0.135911 0.136037 
0.136109 0.136221 0.136352 0.136436 0.136612 0.136859 0.137236 0.137713 0.138321 
0.139047 0.139996 0.141164 0.142478 0.143873 0.145275 0.146827 0.148797 0.151833 
0.161834 0.168302 0.180294 0.193647 0.208616 0.220485 0.22822 0.231034 0.229567 
0.2271 0.224494 0.22194 0.220397 0.218661 0.218164 0.217587 0.217116 0.217163 
0.217077 0.217342 0.217237 0.217428 0.21731 0.217458 0.217404 0.217391 0.217434 
0.107636 0.107636 0.109152 0.110976 0.113624 0.117051 0.120856 0.124775 0.128341 
0.131393 0.133554 0.135082 0.136337 0.137588 0.138823 0.14001 0.141088 0.142203 
0.143287 0.144631 0.146547 0.150206 0.156256 0.162834 0.172191 0.18445 0.197911 
0.209625 0.216651 0.220262 0.220953 0.219752 0.218149 0.216627 0.215568 0.214849 
0.214582 0.214519 0.214524 0.214397 0.214178 0.213916 0.213599 0.213221 0.212891 
0.212523 0.212313 0.212073 0.212106 0.105961 0.105961 0.106441 0.106657 0.106942 
0.107583 0.108848 0.111201 0.114628 0.118888 0.123699 0.128401 0.132368 0.135181 
0.137156 0.138615 0.139812 0.140917 0.142194 0.143819 0.14649 0.150809 0.157209 
0.165215 0.176363 0.18943 0.201841 0.210609 0.214574 0.215135 0.213574 0.211576 
0.209875 0.208765 0.208231 0.208255 0.208461 0.208939 0.20951 0.209907 0.210073 
0.210111 0.210159 0.210254 0.210416 0.210529 0.210644 0.210637 0.210714 0.105145 
0.105145 0.105339 0.105512 0.105434 0.10551 0.105676 0.106296 0.107545 0.109956 
0.11371 0.118548 0.123929 0.129013 0.13323 0.136171 0.138062 0.139549 0.141137 
0.143384 0.146502 0.151737 0.15886 0.168773 0.181011 0.194438 0.20502 0.211091 
0.212366 0.210645 0.207978 0.205557 0.203809 0.202704 0.202346 0.202327 0.202683 
0.203296 0.204134 0.205012 0.205864 0.206535 0.207089 0.20752 0.207819 0.207997 
0.208075 0.208099 0.20814 0.104997 0.104997 0.105043 0.105138 0.105041 0.104931 
0.104871 0.10492 0.105248 0.10605 0.107641 0.110747 0.115119 0.120523 0.126039 
0.131047 0.13498 0.137674 0.140095 0.142714 0.146848 0.152553 0.161631 0.172234 
0.185897 0.197953 0.206625 0.210206 0.209535 0.206707 0.203665 0.20118 0.199285 
0.198285 0.197845 0.198003 0.198569 0.199543 0.200481 0.201457 0.202293 0.203019 
0.203594 0.203982 0.204291 0.204395 0.204534 0.204475 0.204559 0.105391 0.105391 
0.105351 0.105423 0.105281 0.105189 0.105018 0.104864 0.104772 0.104876 0.105416 
0.106659 0.108994 0.112928 0.118241 0.124095 0.129621 0.134477 0.13823 0.142245 
0.146897 0.154577 0.164088 0.176826 0.188992 0.199604 0.205713 0.207269 0.205248 
0.202269 0.199439 0.196967 0.195546 0.194542 0.194391 0.194728 0.195572 0.196338 
0.197206 0.197943 0.198576 0.199121 0.199484 0.199798 0.199944 0.20008 0.200117 
0.200122 0.200124 0.1065 0.1065 0.106469 0.106243 0.106125 0.105963 0.105706 
0.10542 0.105066 0.104851 0.104736 0.1051 0.106052 0.108143 0.111765 0.117072 
0.123241 0.129374 0.13538 0.140956 0.14815 0.156534 0.168405 0.179813 0.191553 
0.199096 0.202808 0.202195 0.199625 0.196786 0.194206 0.19276 0.191746 0.191561 
0.191661 0.192395 0.192878 0.19353 0.193932 0.194338 0.194622 0.194837 0.195034 
0.195127 0.195254 0.195288 0.195372 0.195356 0.195351 0.108336 0.108336 0.108528 
0.108145 0.107877 0.107589 0.107193 0.106692 0.106148 0.105561 0.105173 0.104907 
0.105134 0.10591 0.107896 0.111529 0.11709 0.123974 0.131458 0.139864 0.148931 
0.160211 0.171499 0.183145 0.19176 0.196844 0.198053 0.196242 0.193405 0.190649 
0.189281 0.188431 0.188567 0.188821 0.189669 0.190036 0.190506 0.190628 0.190766 
0.190749 0.190762 0.190749 0.190737 0.190766 0.19081 0.190823 0.190946 0.190889 
0.190918 0.111383 0.111383 0.111667 0.111602 0.11087 0.110397 0.109762 0.109047 
0.108147 0.107268 0.106387 0.10575 0.105343 0.105399 0.106183 0.108433 0.112688 
0.119279 0.128052 0.138254 0.150428 0.162656 0.175097 0.184252 0.19056 0.193239 
0.192548 0.189942 0.186996 0.185463 0.184671 0.185074 0.185544 0.186679 0.187248 
0.18774 0.187787 0.187773 0.187589 0.187447 0.187251 0.187148 0.187079 0.187061 
0.187045 0.187103 0.187144 0.187177 0.187122 0.114996 0.114996 0.115215 0.115517 
0.115268 0.114301 0.113438 0.112415 0.111281 0.109912 0.108646 0.107414 0.106537 
0.106047 0.106177 0.107449 0.110666 0.11672 0.12575 0.137628 0.150836 0.164865 
0.176497 0.184498 0.188631 0.18883 0.186631 0.183556 0.181766 0.180967 0.181488 
0.182164 0.183475 0.184238 0.184891 0.18508 0.18507 0.184905 0.184695 0.184439 
0.184269 0.184134 0.184079 0.183997 0.184069 0.184024 0.184182 0.184103 0.184156 
0.118825 0.118825 0.118929 0.119151 0.119417 0.119124 0.117952 0.116736 0.115331 
0.113755 0.111921 0.110231 0.108731 0.107749 0.107512 0.108258 0.110968 0.1163 
0.125256 0.137255 0.151133 0.164706 0.176033 0.182956 0.185355 0.183936 0.180711 
0.178375 0.177306 0.177771 0.178718 0.180151 0.181119 0.1819 0.182241 0.182336 
0.182293 0.182125 0.181962 0.181747 0.181609 0.18152 0.181437 0.181472 0.181444 
0.181527 0.181553 0.181566 0.181558 0.123063 0.123063 0.12302 0.12307 0.123265 
0.123514 0.12321 0.121887 0.120311 0.118599 0.116547 0.114365 0.112316 0.110832 
0.110138 0.110829 0.113075 0.118019 0.126041 0.137588 0.150524 0.163529 0.173808 
0.179624 0.181018 0.178829 0.176153 0.174325 0.174279 0.175265 0.176777 0.17792 
0.178849 0.179325 0.179485 0.179561 0.179455 0.179442 0.179266 0.179146 0.179082 
0.179 0.179041 0.178998 0.179113 0.179083 0.179218 0.17916 0.179172 0.127184 
0.127184 0.127238 0.127185 0.127251 0.127365 0.127768 0.127368 0.125946 0.124126 
0.122244 0.119931 0.117722 0.115674 0.114721 0.114914 0.117124 0.121113 0.128167 
0.137814 0.149513 0.160818 0.169734 0.174629 0.17556 0.174255 0.172345 0.171618 
0.172216 0.173496 0.174757 0.175749 0.176348 0.176509 0.176674 0.176591 0.176692 
0.176575 0.176489 0.1765 0.1764 0.176467 0.176429 0.176555 0.176561 0.176657 
0.176686 0.176657 0.176668 0.130064 0.130064 0.130082 0.130167 0.130183 0.130288 
0.130354 0.13099 0.130396 0.129209 0.127706 0.126197 0.124226 0.12253 0.121029 
0.121045 0.122198 0.125531 0.130485 0.138274 0.147551 0.157011 0.164766 0.16911 
0.170541 0.170286 0.170039 0.170117 0.170854 0.171906 0.17279 0.173372 0.173536 
0.173718 0.173604 0.173679 0.173574 0.173521 0.173591 0.173477 0.173617 0.173563 
0.17377 0.173783 0.173968 0.173966 0.17409 0.174073 0.174144 0.131037 0.131037 
0.13112 0.131174 0.131333 0.13149 0.131535 0.131593 0.132116 0.131897 0.131697 
0.131236 0.130908 0.129942 0.129146 0.1283 0.128924 0.130301 0.13357 0.138237 
0.145282 0.152571 0.158838 0.162866 0.165027 0.166687 0.167784 0.168726 0.169546 
0.170026 0.170433 0.170391 0.170426 0.170286 0.170329 0.170299 0.170318 0.170463 
0.170421 0.170663 0.170612 0.170912 0.170932 0.171207 0.171278 0.171447 0.171508 
0.171565 0.171792 0.131437 0.131437 0.131301 0.131509 0.131433 0.131579 0.131355 
0.13108 0.131416 0.131956 0.132913 0.133946 0.134933 0.136077 0.136143 0.136081 
0.135391 0.135597 0.13628 0.138883 0.142904 0.148268 0.153561 0.157625 0.160861 
0.163508 0.165793 0.167237 0.167848 0.168122 0.167758 0.167503 0.167136 0.166872 
0.166712 0.166532 0.166559 0.166445 0.166826 0.166952 0.167593 0.16783 0.168415 
0.16869 0.169098 0.16927 0.16958 0.169709 0.169851 0.133762 0.133762 0.133784 
0.133852 0.134012 0.134061 0.134286 0.134332 0.134576 0.135159 0.136498 0.137981 
0.139916 0.141707 0.143311 0.14385 0.143765 0.142361 0.141356 0.140769 0.141914 
0.143932 0.14683 0.150333 0.154054 0.158319 0.161508 0.163448 0.164081 0.163812 
0.163036 0.16242 0.162056 0.162087 0.162259 0.162948 0.163698 0.16491 0.165696 
0.16678 0.167246 0.167937 0.16824 0.168628 0.168914 0.169345 0.169712 0.169817 
0.169775 0.135734 0.135734 0.135911 0.135939 0.136001 0.136078 0.1362 0.136282 
0.136486 0.136726 0.137142 0.137595 0.138232 0.138939 0.139912 0.141052 0.14243 
0.143787 0.145272 0.146774 0.14883 0.151816 0.161786 0.168785 0.180147 0.193913 
0.2084 0.220234 0.227989 0.230075 0.229345 0.22711 0.224622 0.222458 0.220498 
0.21916 0.218222 0.217636 0.217251 0.216901 0.216939 0.216887 0.217002 0.216905 
0.217002 0.216969 0.21707 0.217026 0.21712 0.107022 0.107022 0.108602 0.110725 
0.113643 0.117244 0.12115 0.125051 0.128617 0.131586 0.133637 0.135086 0.136315 
0.137576 0.138811 0.140012 0.141094 0.142212 0.143272 0.144587 0.146509 0.150183 
0.156245 0.162725 0.172108 0.18424 0.197822 0.209524 0.216533 0.219763 0.220683 
0.219712 0.21825 0.216791 0.215716 0.214952 0.214662 0.214674 0.214617 0.2145 
0.21424 0.21395 0.213565 0.213167 0.212735 0.21236 0.212088 0.211867 0.211889 
0.105266 0.105266 0.105604 0.105945 0.106317 0.107105 0.10859 0.111109 0.114656 
0.118983 0.123887 0.12855 0.132464 0.135262 0.137218 0.138666 0.139818 0.140934 
0.142145 0.143815 0.146432 0.150879 0.157128 0.165182 0.176192 0.189337 0.201746 
0.210582 0.214321 0.214831 0.213505 0.211636 0.209933 0.208831 0.208294 0.208306 
0.208541 0.209045 0.209571 0.209913 0.210066 0.210046 0.210087 0.21013 0.210255 
0.210324 0.21041 0.210425 0.21049 0.104452 0.104452 0.104709 0.104836 0.104879 
0.104987 0.10532 0.106038 0.107407 0.109953 0.113679 0.118656 0.124104 0.129214 
0.133395 0.136251 0.138139 0.139546 0.141206 0.143318 0.146664 0.15167 0.159072 
0.168627 0.18119 0.194365 0.205026 0.210876 0.212072 0.210636 0.208047 0.205599 
0.203777 0.202718 0.202303 0.202345 0.202699 0.203314 0.204073 0.204926 0.20573 
0.206405 0.206927 0.207342 0.20764 0.207795 0.207916 0.20791 0.208003 0.104427 
0.104427 0.104486 0.10463 0.104511 0.104504 0.104438 0.104646 0.104998 0.105946 
0.107606 0.110747 0.115165 0.120675 0.126231 0.131291 0.135087 0.137853 0.140083 
0.142983 0.146771 0.15301 0.161517 0.172759 0.185838 0.198053 0.206533 0.209764 
0.209508 0.20683 0.203774 0.201112 0.1993 0.198183 0.197839 0.198013 0.198584 
0.199495 0.200421 0.20136 0.202187 0.202929 0.203482 0.203903 0.204175 0.20434 
0.204415 0.20442 0.204451 0.104946 0.104946 0.104955 0.104991 0.104918 0.104784 
0.104676 0.104531 0.104587 0.104708 0.105341 0.106581 0.109021 0.112917 0.118363 
0.124254 0.129908 0.134604 0.138586 0.142215 0.147412 0.154544 0.164897 0.176837 
0.18947 0.199699 0.205075 0.20706 0.205313 0.20247 0.199336 0.197022 0.195419 
0.194553 0.194386 0.194782 0.195512 0.196323 0.197144 0.197883 0.198561 0.199078 
0.199505 0.199767 0.199992 0.200055 0.200176 0.200096 0.200142 0.106063 0.106063 
0.106061 0.105962 0.105852 0.105665 0.105394 0.105158 0.104826 0.104715 0.104612 
0.105044 0.106003 0.108202 0.111816 0.117197 0.123362 0.129666 0.135505 0.141517 
0.148098 0.157232 0.168416 0.180624 0.191637 0.198392 0.202471 0.202045 0.199876 
0.196648 0.194286 0.192626 0.191775 0.191499 0.191731 0.192301 0.192881 0.193475 
0.193914 0.194352 0.194627 0.194928 0.19507 0.19525 0.195312 0.195395 0.19544 
0.195419 0.195402 0.108006 0.108006 0.108101 0.107971 0.107634 0.107368 0.106926 
0.106437 0.105938 0.105378 0.105053 0.104823 0.105116 0.105875 0.107954 0.111591 
0.117218 0.124018 0.131743 0.139953 0.149521 0.160159 0.172278 0.183179 0.191518 
0.196644 0.197748 0.19646 0.193291 0.190748 0.189125 0.188467 0.188451 0.188887 
0.189572 0.190052 0.190472 0.190645 0.190785 0.190782 0.190851 0.19081 0.190887 
0.190859 0.190942 0.190924 0.191011 0.190957 0.190964 0.111299 0.111299 0.1113 
0.111181 0.110649 0.110164 0.109527 0.108799 0.107913 0.107079 0.106225 0.105639 
0.105284 0.105409 0.10615 0.108464 0.112684 0.119433 0.128092 0.138731 0.150406 
0.163283 0.175106 0.184485 0.1905 0.192801 0.192603 0.189847 0.187118 0.185272 
0.184701 0.18493 0.185595 0.186591 0.18727 0.187752 0.187827 0.187821 0.187645 
0.187521 0.187342 0.18728 0.187179 0.187187 0.187165 0.187192 0.187276 0.187248 
0.187265 0.11514 0.11514 0.115018 0.115109 0.114878 0.114044 0.113231 0.112164 
0.111034 0.109683 0.108463 0.107253 0.106451 0.105987 0.106177 0.107354 0.110624 
0.11659 0.125889 0.137566 0.151287 0.164889 0.176821 0.18447 0.188209 0.188652 
0.186501 0.183693 0.181542 0.180986 0.181394 0.182207 0.183412 0.184275 0.184954 
0.18514 0.185177 0.184979 0.18478 0.184543 0.184395 0.184241 0.184188 0.18412 
0.18415 0.184162 0.18424 0.184217 0.184224 0.119096 0.119096 0.118897 0.118942 
0.119056 0.118812 0.117719 0.11655 0.115068 0.113503 0.111679 0.110064 0.108566 
0.107698 0.10738 0.108211 0.110718 0.116201 0.125075 0.137418 0.151111 0.164964 
0.176057 0.182658 0.185087 0.183769 0.180817 0.178135 0.177305 0.177758 0.178779 
0.180111 0.181169 0.182003 0.182335 0.182508 0.182397 0.182254 0.182034 0.181876 
0.181711 0.181626 0.181555 0.181533 0.181567 0.181569 0.181685 0.181635 0.181661 
0.122848 0.122848 0.123139 0.123058 0.123092 0.123214 0.122985 0.121683 0.120124 