# vtk DataFile Version 5.1
vtk output
ASCII
DATASET STRUCTURED_GRID
DIMENSIONS 49 35 18
POINTS 30870 float
6.79 -4.51558e-16 -0.324774 6.79 0.003 -0.324774 6.79 0.00655863 -0.324774 
6.79 0.0107751 -0.324774 6.79 0.0157644 -0.324774 6.79 0.0216586 -0.324774 
6.79 0.0286089 -0.324774 6.79 0.0367864 -0.324774 6.79 0.0463827 -0.324774 
6.79 0.0576096 -0.324774 6.79 0.0706972 -0.324774 6.79 0.0858905 -0.324774 
6.79 0.103443 -0.324774 6.79 0.123609 -0.324774 6.79 0.146628 -0.324774 
6.79 0.172713 -0.324774 6.79 0.202028 -0.324774 6.79 0.234668 -0.324774 
6.79 0.270636 -0.324774 6.79 0.30982 -0.324774 6.79 0.351981 -0.324774 
6.79 0.396743 -0.324774 6.79 0.443598 -0.324774 6.79 0.49192 -0.324774 
6.79 0.541 -0.324774 6.79 0.590079 -0.324774 6.79 0.638401 -0.324774 
6.79 0.685256 -0.324774 6.79 0.730018 -0.324774 6.79 0.77218 -0.324774 
6.79 0.811364 -0.324774 6.79 0.847331 -0.324774 6.79 0.879971 -0.324774 
6.79 0.909286 -0.324774 6.79 0.935371 -0.324774 6.79 0.958391 -0.324774 
6.79 0.978556 -0.324774 6.79 0.996109 -0.324774 6.79 1.0113 -0.324774 
6.79 1.02439 -0.324774 6.79 1.03562 -0.324774 6.79 1.04521 -0.324774 
6.79 1.05339 -0.324774 6.79 1.06034 -0.324774 6.79 1.06623 -0.324774 
6.79 1.07122 -0.324774 6.79 1.07544 -0.324774 6.79 1.079 -0.324774 
6.79 1.082 -0.324774 6.83 -4.47268e-16 -0.324774 6.83 0.003 -0.324774 
6.83 0.00655863 -0.324774 6.83 0.0107751 -0.324774 6.83 0.0157644 -0.324774 
6.83 0.0216586 -0.324774 6.83 0.0286089 -0.324774 6.83 0.0367864 -0.324774 
6.83 0.0463827 -0.324774 6.83 0.0576096 -0.324774 6.83 0.0706972 -0.324774 
6.83 0.0858905 -0.324774 6.83 0.103443 -0.324774 6.83 0.123609 -0.324774 
6.83 0.146628 -0.324774 6.83 0.172713 -0.324774 6.83 0.202028 -0.324774 
6.83 0.234668 -0.324774 6.83 0.270636 -0.324774 6.83 0.30982 -0.324774 
6.83 0.351981 -0.324774 6.83 0.396743 -0.324774 6.83 0.443598 -0.324774 
6.83 0.49192 -0.324774 6.83 0.541 -0.324774 6.83 0.590079 -0.324774 
6.83 0.638401 -0.324774 6.83 0.685256 -0.324774 6.83 0.730018 -0.324774 
6.83 0.77218 -0.324774 6.83 0.811364 -0.324774 6.83 0.847331 -0.324774 
6.83 0.879971 -0.324774 6.83 0.909286 -0.324774 6.83 0.935371 -0.324774 
6.83 0.958391 -0.324774 6.83 0.978556 -0.324774 6.83 0.996109 -0.324774 
6.83 1.0113 -0.324774 6.83 1.02439 -0.324774 6.83 1.03562 -0.324774 
6.83 1.04521 -0.324774 6.83 1.05339 -0.324774 6.83 1.06034 -0.324774 
6.83 1.06623 -0.324774 6.83 1.07122 -0.324774 6.83 1.07544 -0.324774 
6.83 1.079 -0.324774 6.83 1.082 -0.324774 6.87324 -4.4263e-16 -0.324774 
6.87324 0.003 -0.324774 6.87324 0.00655863 -0.324774 6.87324 0.0107751 -0.324774 
6.87324 0.0157644 -0.324774 6.87324 0.0216586 -0.324774 6.87324 0.0286089 -0.324774 
6.87324 0.0367864 -0.324774 6.87324 0.0463827 -0.324774 6.87324 0.0576096 -0.324774 
6.87324 0.0706972 -0.324774 6.87324 0.0858905 -0.324774 6.87324 0.103443 -0.324774 
6.87324 0.123609 -0.324774 6.87324 0.146628 -0.324774 6.87324 0.172713 -0.324774 
6.87324 0.202028 -0.324774 6.87324 0.234668 -0.324774 6.87324 0.270636 -0.324774 
6.87324 0.30982 -0.324774 6.87324 0.351981 -0.324774 6.87324 0.396743 -0.324774 
6.87324 0.443598 -0.324774 6.87324 0.49192 -0.324774 6.87324 0.541 -0.324774 
6.87324 0.590079 -0.324774 6.87324 0.638401 -0.324774 6.87324 0.685256 -0.324774 
6.87324 0.730018 -0.324774 6.87324 0.77218 -0.324774 6.87324 0.811364 -0.324774 
6.87324 0.847331 -0.324774 6.87324 0.879971 -0.324774 6.87324 0.909286 -0.324774 
6.87324 0.935371 -0.324774 6.87324 0.958391 -0.324774 6.87324 0.978556 -0.324774 
6.87324 0.996109 -0.324774 6.87324 1.0113 -0.324774 6.87324 1.02439 -0.324774 
6.87324 1.03562 -0.324774 6.87324 1.04521 -0.324774 6.87324 1.05339 -0.324774 
6.87324 1.06034 -0.324774 6.87324 1.06623 -0.324774 6.87324 1.07122 -0.324774 
6.87324 1.07544 -0.324774 6.87324 1.079 -0.324774 6.87324 1.082 -0.324774 
6.91995 -4.3762e-16 -0.324774 6.91995 0.003 -0.324774 6.91995 0.00655863 -0.324774 
6.91995 0.0107751 -0.324774 6.91995 0.0157644 -0.324774 6.91995 0.0216586 -0.324774 
6.91995 0.0286089 -0.324774 6.91995 0.0367864 -0.324774 6.91995 0.0463827 -0.324774 
6.91995 0.0576096 -0.324774 6.91995 0.0706972 -0.324774 6.91995 0.0858905 -0.324774 
6.91995 0.103443 -0.324774 6.91995 0.123609 -0.324774 6.91995 0.146628 -0.324774 
6.91995 0.172713 -0.324774 6.91995 0.202028 -0.324774 6.91995 0.234668 -0.324774 
6.91995 0.270636 -0.324774 6.91995 0.30982 -0.324774 6.91995 0.351981 -0.324774 
6.91995 0.396743 -0.324774 6.91995 0.443598 -0.324774 6.91995 0.49192 -0.324774 
6.91995 0.541 -0.324774 6.91995 0.590079 -0.324774 6.91995 0.638401 -0.324774 
6.91995 0.685256 -0.324774 6.91995 0.730018 -0.324774 6.91995 0.77218 -0.324774 
6.91995 0.811364 -0.324774 6.91995 0.847331 -0.324774 6.91995 0.879971 -0.324774 
6.91995 0.909286 -0.324774 6.91995 0.935371 -0.324774 6.91995 0.958391 -0.324774 
6.91995 0.978556 -0.324774 6.91995 0.996109 -0.324774 6.91995 1.0113 -0.324774 
6.91995 1.02439 -0.324774 6.91995 1.03562 -0.324774 6.91995 1.04521 -0.324774 
6.91995 1.05339 -0.324774 6.91995 1.06034 -0.324774 6.91995 1.06623 -0.324774 
6.91995 1.07122 -0.324774 6.91995 1.07544 -0.324774 6.91995 1.079 -0.324774 
6.91995 1.082 -0.324774 6.97035 -4.32214e-16 -0.324774 6.97035 0.003 -0.324774 
6.97035 0.00655863 -0.324774 6.97035 0.0107751 -0.324774 6.97035 0.0157644 -0.324774 
6.97035 0.0216586 -0.324774 6.97035 0.0286089 -0.324774 6.97035 0.0367864 -0.324774 
6.97035 0.0463827 -0.324774 6.97035 0.0576096 -0.324774 6.97035 0.0706972 -0.324774 
6.97035 0.0858905 -0.324774 6.97035 0.103443 -0.324774 6.97035 0.123609 -0.324774 
6.97035 0.146628 -0.324774 6.97035 0.172713 -0.324774 6.97035 0.202028 -0.324774 
6.97035 0.234668 -0.324774 6.97035 0.270636 -0.324774 6.97035 0.30982 -0.324774 
6.97035 0.351981 -0.324774 6.97035 0.396743 -0.324774 6.97035 0.443598 -0.324774 
6.97035 0.49192 -0.324774 6.97035 0.541 -0.324774 6.97035 0.590079 -0.324774 
6.97035 0.638401 -0.324774 6.97035 0.685256 -0.324774 6.97035 0.730018 -0.324774 
6.97035 0.77218 -0.324774 6.97035 0.811364 -0.324774 6.97035 0.847331 -0.324774 
6.97035 0.879971 -0.324774 6.97035 0.909286 -0.324774 6.97035 0.935371 -0.324774 
6.97035 0.958391 -0.324774 6.97035 0.978556 -0.324774 6.97035 0.996109 -0.324774 
6.97035 1.0113 -0.324774 6.97035 1.02439 -0.324774 6.97035 1.03562 -0.324774 
6.97035 1.04521 -0.324774 6.97035 1.05339 -0.324774 6.97035 1.06034 -0.324774 
6.97035 1.06623 -0.324774 6.97035 1.07122 -0.324774 6.97035 1.07544 -0.324774 
6.97035 1.079 -0.324774 6.97035 1.082 -0.324774 7.02469 -4.26386e-16 -0.324774 
7.02469 0.003 -0.324774 7.02469 0.00655863 -0.324774 7.02469 0.0107751 -0.324774 
7.02469 0.0157644 -0.324774 7.02469 0.0216586 -0.324774 7.02469 0.0286089 -0.324774 
7.02469 0.0367864 -0.324774 7.02469 0.0463827 -0.324774 7.02469 0.0576096 -0.324774 
7.02469 0.0706972 -0.324774 7.02469 0.0858905 -0.324774 7.02469 0.103443 -0.324774 
7.02469 0.123609 -0.324774 7.02469 0.146628 -0.324774 7.02469 0.172713 -0.324774 
7.02469 0.202028 -0.324774 7.02469 0.234668 -0.324774 7.02469 0.270636 -0.324774 
7.02469 0.30982 -0.324774 7.02469 0.351981 -0.324774 7.02469 0.396743 -0.324774 
7.02469 0.443598 -0.324774 7.02469 0.49192 -0.324774 7.02469 0.541 -0.324774 
7.02469 0.590079 -0.324774 7.02469 0.638401 -0.324774 7.02469 0.685256 -0.324774 
7.02469 0.730018 -0.324774 7.02469 0.77218 -0.324774 7.02469 0.811364 -0.324774 
7.02469 0.847331 -0.324774 7.02469 0.879971 -0.324774 7.02469 0.909286 -0.324774 
7.02469 0.935371 -0.324774 7.02469 0.958391 -0.324774 7.02469 0.978556 -0.324774 
7.02469 0.996109 -0.324774 7.02469 1.0113 -0.324774 7.02469 1.02439 -0.324774 
7.02469 1.03562 -0.324774 7.02469 1.04521 -0.324774 7.02469 1.05339 -0.324774 
7.02469 1.06034 -0.324774 7.02469 1.06623 -0.324774 7.02469 1.07122 -0.324774 
7.02469 1.07544 -0.324774 7.02469 1.079 -0.324774 7.02469 1.082 -0.324774 
7.08321 -4.20109e-16 -0.324774 7.08321 0.003 -0.324774 7.08321 0.00655863 -0.324774 
7.08321 0.0107751 -0.324774 7.08321 0.0157644 -0.324774 7.08321 0.0216586 -0.324774 
7.08321 0.0286089 -0.324774 7.08321 0.0367864 -0.324774 7.08321 0.0463827 -0.324774 
7.08321 0.0576096 -0.324774 7.08321 0.0706972 -0.324774 7.08321 0.0858905 -0.324774 
7.08321 0.103443 -0.324774 7.08321 0.123609 -0.324774 7.08321 0.146628 -0.324774 
7.08321 0.172713 -0.324774 7.08321 0.202028 -0.324774 7.08321 0.234668 -0.324774 
7.08321 0.270636 -0.324774 7.08321 0.30982 -0.324774 7.08321 0.351981 -0.324774 
7.08321 0.396743 -0.324774 7.08321 0.443598 -0.324774 7.08321 0.49192 -0.324774 
7.08321 0.541 -0.324774 7.08321 0.590079 -0.324774 7.08321 0.638401 -0.324774 
7.08321 0.685256 -0.324774 7.08321 0.730018 -0.324774 7.08321 0.77218 -0.324774 
7.08321 0.811364 -0.324774 7.08321 0.847331 -0.324774 7.08321 0.879971 -0.324774 
7.08321 0.909286 -0.324774 7.08321 0.935371 -0.324774 7.08321 0.958391 -0.324774 
7.08321 0.978556 -0.324774 7.08321 0.996109 -0.324774 7.08321 1.0113 -0.324774 
7.08321 1.02439 -0.324774 7.08321 1.03562 -0.324774 7.08321 1.04521 -0.324774 
7.08321 1.05339 -0.324774 7.08321 1.06034 -0.324774 7.08321 1.06623 -0.324774 
7.08321 1.07122 -0.324774 7.08321 1.07544 -0.324774 7.08321 1.079 -0.324774 
7.08321 1.082 -0.324774 7.14617 -4.13356e-16 -0.324774 7.14617 0.003 -0.324774 
7.14617 0.00655863 -0.324774 7.14617 0.0107751 -0.324774 7.14617 0.0157644 -0.324774 
7.14617 0.0216586 -0.324774 7.14617 0.0286089 -0.324774 7.14617 0.0367864 -0.324774 
7.14617 0.0463827 -0.324774 7.14617 0.0576096 -0.324774 7.14617 0.0706972 -0.324774 
7.14617 0.0858905 -0.324774 7.14617 0.103443 -0.324774 7.14617 0.123609 -0.324774 
7.14617 0.146628 -0.324774 7.14617 0.172713 -0.324774 7.14617 0.202028 -0.324774 
7.14617 0.234668 -0.324774 7.14617 0.270636 -0.324774 7.14617 0.30982 -0.324774 
7.14617 0.351981 -0.324774 7.14617 0.396743 -0.324774 7.14617 0.443598 -0.324774 
7.14617 0.49192 -0.324774 7.14617 0.541 -0.324774 7.14617 0.590079 -0.324774 
7.14617 0.638401 -0.324774 7.14617 0.685256 -0.324774 7.14617 0.730018 -0.324774 
7.14617 0.77218 -0.324774 7.14617 0.811364 -0.324774 7.14617 0.847331 -0.324774 
[...]
POINT_DATA 30870
FIELD FieldData 5
pressure 1 30870 float
0.214519 0.214519 0.21431 0.214345 0.214335 0.21439 0.214474 0.214511 0.214678 
0.214751 0.214957 0.214943 0.215007 0.213712 0.21406 0.214534 0.216327 0.217749 
0.218394 0.216436 0.21237 0.211991 0.213609 0.215988 0.217559 0.218726 0.218415 
0.216307 0.212969 0.209391 0.205658 0.201995 0.198073 0.194222 0.190621 0.187848 
0.185508 0.184861 0.183276 0.182291 0.181557 0.181095 0.180901 0.180807 0.18074 
0.180905 0.180886 0.181272 0.181371 0.217773 0.217773 0.2182 0.218208 0.218274 
0.218254 0.218299 0.218257 0.218308 0.218201 0.218211 0.217933 0.217746 0.217105 
0.217271 0.216679 0.216326 0.215854 0.217851 0.221401 0.224254 0.223488 0.222702 
0.223711 0.223775 0.224385 0.223983 0.221672 0.218806 0.215888 0.212534 0.209354 
0.206223 0.203092 0.19981 0.19697 0.194565 0.193624 0.194384 0.194945 0.195542 
0.196017 0.19627 0.196605 0.196666 0.19686 0.19683 0.19689 0.196849 0.218527 
0.218527 0.218925 0.218956 0.218975 0.219002 0.218936 0.218949 0.218784 0.218742 
0.218427 0.218338 0.217788 0.217548 0.216834 0.216494 0.215678 0.215345 0.215836 
0.218118 0.221867 0.225214 0.226376 0.224789 0.222433 0.222091 0.221605 0.219735 
0.217562 0.215282 0.212535 0.210147 0.207159 0.204318 0.201805 0.199956 0.198857 
0.198075 0.197804 0.197655 0.197726 0.197861 0.198009 0.198218 0.198329 0.198525 
0.198557 0.198692 0.198733 0.219402 0.219402 0.219726 0.219765 0.21981 0.219812 
0.219828 0.219749 0.219711 0.21946 0.219338 0.218896 0.218756 0.218049 0.217946 
0.217136 0.216916 0.216183 0.215958 0.216195 0.218583 0.222836 0.226757 0.225299 
0.221595 0.219533 0.218764 0.217184 0.215578 0.213349 0.210904 0.208371 0.206086 
0.20409 0.202995 0.201733 0.200958 0.200006 0.199607 0.199401 0.19946 0.199574 
0.199759 0.199879 0.200092 0.200171 0.20035 0.200409 0.200456 0.220248 0.220248 
0.220482 0.220515 0.220551 0.220577 0.220615 0.22061 0.220533 0.220453 0.220127 
0.219976 0.219392 0.219286 0.218531 0.218472 0.21773 0.217563 0.216954 0.216804 
0.216796 0.219305 0.223234 0.224464 0.221036 0.217869 0.215822 0.214401 0.212572 
0.210638 0.208532 0.206965 0.205205 0.20416 0.203187 0.202657 0.20203 0.201635 
0.201406 0.201414 0.201509 0.201704 0.201811 0.202083 0.202158 0.202397 0.202406 
0.202605 0.202654 0.221135 0.221135 0.221401 0.221265 0.221356 0.221328 0.221377 
0.221413 0.221403 0.221322 0.221227 0.220842 0.220709 0.22003 0.219984 0.219194 
0.219156 0.218465 0.218299 0.217676 0.217215 0.216602 0.218866 0.220817 0.219821 
0.216249 0.213162 0.210707 0.209156 0.207684 0.206635 0.20556 0.204956 0.204337 
0.204101 0.203678 0.203716 0.203462 0.203559 0.203603 0.203808 0.203921 0.204233 
0.204319 0.204626 0.204647 0.20489 0.204912 0.20496 0.222382 0.222382 0.222431 
0.222446 0.22228 0.222335 0.222277 0.222319 0.222339 0.222316 0.222206 0.2221 
0.221646 0.221535 0.220765 0.220705 0.219891 0.219783 0.219032 0.21876 0.217766 
0.216253 0.215475 0.21661 0.216412 0.214289 0.2105 0.208165 0.206361 0.205754 
0.205141 0.204993 0.205172 0.205598 0.205592 0.20585 0.205757 0.205852 0.205807 
0.205981 0.206057 0.206344 0.206434 0.206757 0.206803 0.207035 0.207044 0.207132 
0.207149 0.223407 0.223407 0.223642 0.223334 0.223424 0.223192 0.223271 0.223174 
0.223227 0.223215 0.223193 0.223044 0.222939 0.222414 0.222281 0.22144 0.221259 
0.220383 0.220174 0.21914 0.218387 0.216644 0.214354 0.213069 0.212996 0.211234 
0.209124 0.206712 0.205617 0.204656 0.204871 0.20552 0.206988 0.207616 0.20822 
0.208198 0.208379 0.208185 0.208314 0.208315 0.208558 0.208633 0.208944 0.209014 
0.209227 0.209275 0.209363 0.209378 0.20942 0.224689 0.224689 0.224712 0.224711 
0.224453 0.224477 0.224235 0.224291 0.224144 0.224179 0.224087 0.224033 0.223801 
0.223659 0.223051 0.222799 0.221878 0.221623 0.220418 0.219644 0.218236 0.216717 
0.213988 0.211892 0.209752 0.209165 0.207914 0.207064 0.205822 0.205868 0.206444 
0.208312 0.20961 0.2106 0.210726 0.210933 0.210683 0.210776 0.210681 0.210913 
0.210951 0.211244 0.211312 0.211523 0.211574 0.211687 0.211714 0.211793 0.211799 
0.225539 0.225539 0.225763 0.225522 0.225563 0.225292 0.225324 0.225077 0.22513 
0.224928 0.224943 0.22474 0.224654 0.224323 0.224109 0.223416 0.222966 0.221869 
0.221169 0.219417 0.217798 0.215531 0.213277 0.210413 0.208432 0.207126 0.207399 
0.207383 0.207709 0.208371 0.21023 0.211598 0.212979 0.213209 0.213548 0.213292 
0.213393 0.21317 0.213384 0.21336 0.213653 0.213705 0.213927 0.213962 0.214125 
0.214132 0.214297 0.214313 0.214379 0.2264 0.2264 0.226507 0.226513 0.226335 
0.226325 0.226084 0.226094 0.225834 0.225855 0.225551 0.225514 0.225153 0.225005 
0.224545 0.22418 0.223326 0.222546 0.220999 0.219372 0.216782 0.214244 0.21148 
0.209417 0.207175 0.206071 0.206464 0.207907 0.209496 0.211824 0.213457 0.214861 
0.21532 0.215759 0.215642 0.215785 0.215551 0.215701 0.215606 0.215893 0.215903 
0.21614 0.216155 0.216356 0.216345 0.216559 0.216528 0.216732 0.216723 0.226864 
0.226864 0.227079 0.227016 0.227024 0.226858 0.226852 0.226627 0.226636 0.226337 
0.226319 0.225884 0.225793 0.225255 0.225016 0.224404 0.223775 0.222606 0.221217 
0.218819 0.216258 0.21293 0.210137 0.208326 0.207273 0.206331 0.206752 0.208771 
0.211745 0.214403 0.216258 0.217198 0.217842 0.217785 0.217888 0.217655 0.217748 
0.217584 0.217818 0.21782 0.218064 0.218097 0.218328 0.218331 0.218571 0.218542 
0.218799 0.218772 0.21883 0.227218 0.227218 0.227456 0.227471 0.227459 0.227442 
0.227317 0.227303 0.227083 0.227069 0.226701 0.226628 0.226041 0.225877 0.225167 
0.224784 0.223976 0.222942 0.221281 0.219181 0.216133 0.212929 0.210059 0.209032 
0.208727 0.208666 0.209279 0.211342 0.213815 0.216317 0.217699 0.219158 0.219608 
0.219948 0.219712 0.219729 0.219516 0.219635 0.219612 0.219852 0.219916 0.220158 
0.220191 0.220424 0.220414 0.220649 0.220627 0.22077 0.220739 0.227715 0.227715 
0.227932 0.227974 0.227994 0.227977 0.227964 0.227849 0.227833 0.227598 0.227548 
0.227107 0.226967 0.226276 0.226036 0.225224 0.224692 0.223658 0.222273 0.22026 
0.217693 0.214903 0.21289 0.212185 0.212319 0.212854 0.214055 0.215272 0.216927 
0.218345 0.219716 0.221051 0.221656 0.221627 0.221602 0.221385 0.221399 0.22133 
0.221523 0.221618 0.221863 0.221919 0.222147 0.222147 0.222368 0.222342 0.222529 
0.222487 0.22251 0.228423 0.228423 0.228672 0.22869 0.228779 0.228771 0.228784 
0.22877 0.228674 0.228655 0.228406 0.228318 0.227836 0.227674 0.226934 0.226747 
0.225936 0.225441 0.224453 0.223198 0.221485 0.219488 0.217815 0.217574 0.217797 
0.218577 0.219444 0.220306 0.220688 0.221397 0.221842 0.22249 0.222554 0.22274 
0.22265 0.22273 0.222666 0.222862 0.222927 0.223159 0.223221 0.223452 0.223444 
0.223661 0.223633 0.223811 0.223797 0.223898 0.223882 0.229757 0.229757 0.229927 
0.229975 0.229993 0.230042 0.230036 0.230047 0.230036 0.229958 0.22993 0.229679 
0.229584 0.229082 0.228997 0.228375 0.22825 0.22762 0.227364 0.226722 0.225873 
0.224787 0.223814 0.22373 0.224475 0.224502 0.224759 0.223938 0.223115 0.222114 
0.221904 0.221836 0.222211 0.222396 0.222811 0.222962 0.223331 0.223461 0.223778 
0.223863 0.224123 0.224125 0.224358 0.224317 0.224519 0.224477 0.224642 0.224606 
0.224602 0.231578 0.231578 0.231727 0.231739 0.231766 0.231758 0.231802 0.231789 
0.231815 0.231813 0.231748 0.2317 0.231442 0.23137 0.230991 0.230926 0.230555 
0.230399 0.230055 0.229981 0.22977 0.229559 0.229122 0.229963 0.230174 0.229959 
0.228602 0.227333 0.225415 0.223977 0.223014 0.222912 0.223051 0.223507 0.223792 
0.224297 0.22451 0.224913 0.225032 0.225343 0.225373 0.225623 0.225583 0.225785 
0.225733 0.225888 0.225866 0.225933 0.225925 0.233943 0.233943 0.234089 0.234021 
0.234046 0.234017 0.234014 0.234041 0.234038 0.234081 0.234101 0.234045 0.234003 
0.233775 0.233808 0.233648 0.233589 0.233301 0.233257 0.233132 0.233313 0.233388 
0.23354 0.23385 0.234261 0.233086 0.232073 0.230792 0.229865 0.228612 0.227675 
0.226945 0.226825 0.226737 0.227084 0.22713 0.227457 0.227535 0.227853 0.227889 
0.228158 0.228129 0.22834 0.228283 0.228453 0.2284 0.228536 0.228489 0.228445 
0.236908 0.236908 0.236991 0.236977 0.236893 0.236875 0.23683 0.236813 0.236834 
0.236853 0.236915 0.236962 0.236912 0.236932 0.236842 0.236946 0.23681 0.236783 
0.23659 0.236767 0.23674 0.236985 0.236768 0.236899 0.237036 0.236808 0.236479 
0.236557 0.236281 0.236075 0.235433 0.234652 0.2337 0.233238 0.232633 0.232549 
0.232238 0.232312 0.232164 0.232321 0.232225 0.232386 0.232309 0.232447 0.232395 
0.232501 0.232492 0.232524 0.232501 0.240075 0.240075 0.24023 0.240088 0.2401 
0.239966 0.239952 0.23988 0.239874 0.239898 0.239968 0.240069 0.240169 0.240176 
0.240311 0.24036 0.240537 0.240515 0.24074 0.240806 0.241272 0.241366 0.241554 
0.241511 0.242373 0.242973 0.243383 0.243353 0.243443 0.242736 0.242034 0.240701 
0.239855 0.238825 0.238389 0.237724 0.237598 0.237257 0.237327 0.237164 0.237288 
0.237199 0.237317 0.237269 0.23737 0.237349 0.237435 0.237411 0.237412 0.243458 
0.243458 0.24354 0.243509 0.243375 0.24333 0.243181 0.243142 0.243045 0.243053 
0.243082 0.243209 0.24335 0.243508 0.243606 0.243836 0.243985 0.244323 0.24456 
0.245197 0.245683 0.246552 0.246989 0.247606 0.248515 0.249648 0.249546 0.249334 
0.247755 0.246481 0.244739 0.243835 0.242815 0.242422 0.241775 0.241647 0.241265 
0.241329 0.241155 0.241283 0.241204 0.24132 0.241287 0.241369 0.241362 0.241415 
0.241419 0.241444 0.241435 0.246342 0.246342 0.246505 0.24637 0.246357 0.246185 
0.246142 0.24597 0.24593 0.245817 0.245852 0.245884 0.246065 0.24621 0.246399 
0.246523 0.246748 0.246909 0.247271 0.24754 0.248173 0.248572 0.249179 0.24935 
0.25004 0.250657 0.25076 0.25006 0.249295 0.24817 0.247245 0.246323 0.245829 
0.245217 0.245063 0.244647 0.244705 0.244503 0.244643 0.244566 0.244682 0.244665 
0.24473 0.244734 0.244764 0.244765 0.244794 0.244776 0.244785 0.248935 0.248935 
0.249032 0.248998 0.24888 0.248816 0.248652 0.24858 0.248401 0.248354 0.248233 
0.24829 0.248316 0.248515 0.24862 0.248762 0.248843 0.248968 0.249018 0.249222 
0.249298 0.249578 0.249527 0.249518 0.24946 0.250127 0.250061 0.250119 0.249683 
0.249517 0.248871 0.248472 0.247888 0.247714 0.247242 0.247282 0.247008 0.247161 
0.247062 0.247195 0.247178 0.247252 0.247258 0.247289 0.247292 0.247312 0.247307 
0.247332 0.247326 0.251019 0.251019 0.251162 0.251071 0.251045 0.250907 0.250848 
0.25068 0.250606 0.25043 0.250396 0.25029 0.250382 0.25042 0.250618 0.2507 
0.250781 0.250826 0.250887 0.250848 0.250896 0.250752 0.250748 0.250318 0.250109 
0.250321 0.250491 0.250302 0.250245 0.249981 0.249751 0.249355 0.249218 0.248834 
0.248892 0.248614 0.248793 0.248685 0.248856 0.248841 0.248947 0.248957 0.249011 
0.249017 0.249054 0.249045 0.249098 0.249081 0.249109 0.252789 0.252789 0.25289 
0.252858 0.252781 0.25272 0.2526 0.252522 0.252362 0.252285 0.252123 0.252112 
0.252034 0.252167 0.252219 0.252398 0.252471 0.252539 0.252563 0.252626 0.25253 
0.252491 0.252188 0.25185 0.251284 0.251218 0.250893 0.250625 0.250182 0.249962 
0.249666 0.249603 0.249402 0.249503 0.249325 0.24954 0.24946 0.249675 0.249673 
0.249815 0.249834 0.249916 0.249928 0.249981 0.249977 0.250033 0.25002 0.250077 
0.250086 0.254118 0.254118 0.254233 0.254166 0.254145 0.254044 0.253994 0.253866 
0.253789 0.253633 0.253565 0.253421 0.253439 0.253385 0.25354 0.25358 0.253703 
0.253727 0.253737 0.253665 0.253601 0.253319 0.252967 0.252228 0.25135 0.250778 
0.250329 0.249719 0.249353 0.24913 0.249074 0.249047 0.249215 0.249187 0.249447 
0.249439 0.249699 0.249724 0.2499 0.249931 0.250033 0.250053 0.250114 0.250118 
0.250167 0.250158 0.250211 0.250207 0.250235 0.255157 0.255157 0.255217 0.255192 
0.255122 0.255079 0.254982 0.25492 0.25479 0.254712 0.254558 0.254509 0.254377 
0.254425 0.254373 0.254516 0.2545 0.254515 0.254399 0.254221 0.253911 0.253511 
0.252792 0.251891 0.250601 0.249803 0.24921 0.248672 0.248299 0.248264 0.24825 
0.248441 0.248525 0.248812 0.248886 0.249159 0.249204 0.249393 0.249424 0.249535 
0.249553 0.249614 0.249619 0.249659 0.249652 0.24969 0.249677 0.24972 0.24972 
0.256004 0.256004 0.256072 0.255989 0.25598 0.255879 0.255848 0.255733 0.255675 
0.255536 0.255475 0.255325 0.255312 0.255197 0.255282 0.255228 0.255344 0.255258 
0.25516 0.254874 0.254485 0.253887 0.25312 0.252 0.250647 0.249747 0.249124 
0.248495 0.248181 0.248087 0.248141 0.248202 0.248439 0.248516 0.248777 0.248828 
0.249028 0.249051 0.249173 0.249185 0.249252 0.249256 0.249293 0.24929 0.249317 
0.249308 0.249336 0.249332 0.249339 0.256902 0.256902 0.256894 0.256873 0.256783 
0.256755 0.25665 0.256609 0.256484 0.256432 0.256291 0.256259 0.256129 0.256173 
0.256096 0.256232 0.256205 0.256314 0.256199 0.256063 0.255708 0.255286 0.254577 
0.253733 0.252469 0.251668 0.251041 0.250419 0.249861 0.249586 0.249303 0.249306 
0.249197 0.249321 0.249276 0.249413 0.249381 0.249491 0.249474 0.249541 0.249532 
0.249569 0.249561 0.249588 0.249577 0.249604 0.249592 0.249621 0.249619 0.257644 
0.257644 0.257676 0.25758 0.257574 0.257463 0.257444 0.257325 0.257292 0.257163 
0.257133 0.257009 0.25703 0.256948 0.257066 0.257061 0.257257 0.257295 0.257423 
0.257343 0.257259 0.256967 0.256602 0.255934 0.25513 0.25434 0.253839 0.253133 
0.252549 0.251978 0.251612 0.251267 0.251145 0.250969 0.250963 0.25086 0.250906 
0.250851 0.250894 0.250872 0.250903 0.250895 0.250918 0.250912 0.250934 0.250927 
0.250948 0.250945 0.250955 0.258165 0.258165 0.258126 0.258118 0.258025 0.258002 
0.257897 0.257865 0.257746 0.257713 0.257592 0.257589 0.257499 0.257577 0.257565 
0.257751 0.257833 0.258072 0.258179 0.258325 0.258315 0.258295 0.258092 0.25783 
0.257202 0.25663 0.256234 0.255732 0.25511 0.254574 0.254046 0.253695 0.25339 
0.25323 0.253071 0.253017 0.252925 0.252903 0.252852 0.252838 0.252816 0.25281 
0.252804 0.252806 0.252805 0.25281 0.252806 0.252812 0.25279 0.257816 0.257816 
0.257837 0.257759 0.257751 0.257655 0.257636 0.25753 0.257503 0.257392 0.257378 
0.257285 0.257328 0.257301 0.257448 0.257529 0.257777 0.257955 0.258222 0.258392 
0.258568 0.258632 0.258669 0.258501 0.258189 0.257707 0.257368 0.257016 0.256617 
0.256149 0.255683 0.255313 0.255018 0.254796 0.254643 0.254524 0.254437 0.254373 
0.254317 0.254291 0.254258 0.254263 0.254245 0.254262 0.254248 0.254265 0.254248 
0.254259 0.254253 0.25607 0.25607 0.256054 0.256042 0.255971 0.25595 0.255867 
0.255841 0.255747 0.255729 0.255642 0.255666 0.25563 0.25575 0.255823 0.256075 
0.256287 0.256636 0.256951 0.257315 0.257609 0.257904 0.258065 0.258157 0.257988 
0.257687 0.257472 0.257231 0.256929 0.256445 0.25601 0.255577 0.255256 0.25497 
0.254785 0.254599 0.254496 0.254371 0.254322 0.254246 0.254241 0.2542 0.254221 
0.254197 0.254221 0.254204 0.25421 0.254211 0.254216 0.250657 0.250657 0.25072 
0.250661 0.250661 0.250586 0.250584 0.250509 0.250517 0.250453 0.250506 0.250489 
0.25065 0.250753 0.251098 0.251396 0.251936 0.252451 0.253138 0.253827 0.254554 
0.255203 0.255844 0.256282 0.256499 0.256489 0.256402 0.256163 0.25576 0.255154 
0.254457 0.25387 0.253279 0.252867 0.252451 0.252205 0.251928 0.251796 0.251625 
0.251572 0.251478 0.251479 0.251434 0.251461 0.251434 0.251465 0.251432 0.251467 
0.251441 0.24331 0.24331 0.243434 0.243419 0.243387 0.243363 0.243312 0.243299 
0.243239 0.243246 0.243198 0.243252 0.243238 0.243404 0.243503 0.24384 0.244135 
0.244653 0.245176 0.245842 0.246561 0.247352 0.24815 0.248942 0.249609 0.249999 
0.250166 0.250177 0.250013 0.249525 0.24916 0.248714 0.248475 0.248195 0.248119 
0.247948 0.247945 0.247831 0.247846 0.247774 0.247786 0.247756 0.247791 0.247785 
0.247815 0.247819 0.247815 0.247847 0.247808 0.213673 0.213673 0.2135 0.213462 
0.213502 0.213512 0.213555 0.213628 0.213674 0.213815 0.213825 0.213793 0.213805 
0.212417 0.212565 0.212942 0.21412 0.215573 0.216215 0.214092 0.210882 0.210207 
0.211597 0.213745 0.215577 0.216289 0.216268 0.213772 0.210532 0.206711 0.203312 
0.199365 0.195755 0.191929 0.188837 0.185987 0.184183 0.183639 0.18214 0.181089 
0.180476 0.180078 0.179962 0.179862 0.180022 0.179976 0.180441 0.180522 0.180779 
0.216181 0.216181 0.216273 0.216105 0.216092 0.215934 0.215898 0.215804 0.215773 
0.21575 0.215824 0.215912 0.215959 0.215848 0.216347 0.21657 0.216688 0.217092 
0.219029 0.223353 0.224666 0.222618 0.221751 0.222706 0.222749 0.223265 0.222712 
0.219961 0.21708 0.213724 0.211235 0.207289 0.204399 0.201101 0.198824 0.196933 
0.195768 0.195853 0.196775 0.197277 0.197844 0.198021 0.198301 0.198257 0.198396 
0.198243 0.198251 0.198097 0.197974 0.217377 0.217377 0.217344 0.217278 0.217103 
0.217 0.216791 0.216628 0.216422 0.216255 0.216102 0.216049 0.215966 0.215996 
0.215845 0.215907 0.215738 0.216208 0.21713 0.22008 0.22344 0.225886 0.225775 
0.224188 0.221578 0.221086 0.220617 0.218383 0.215884 0.213014 0.21053 0.207443 
0.204776 0.202496 0.200794 0.19997 0.199526 0.199345 0.19921 0.199129 0.199235 
0.19922 0.199314 0.199275 0.199341 0.199288 0.199322 0.199262 0.199158 0.218358 
0.218358 0.218432 0.218196 0.218182 0.217939 0.217817 0.217577 0.21735 0.217113 
0.216901 0.216693 0.216663 0.216456 0.216586 0.216397 0.216602 0.216724 0.217501 
0.21832 0.221106 0.22487 0.227417 0.225211 0.220916 0.218762 0.217968 0.216047 
0.21398 0.211248 0.208975 0.206724 0.204611 0.203229 0.202185 0.201585 0.201193 
0.200905 0.200683 0.200646 0.200631 0.200698 0.200706 0.200759 0.200747 0.200776 
0.200744 0.200728 0.200628 0.219482 0.219482 0.219356 0.219348 0.219112 0.219022 
0.218785 0.218579 0.218337 0.218051 0.217792 0.217584 0.21734 0.217361 0.217149 
0.217382 0.217345 0.217945 0.218391 0.219352 0.219858 0.222282 0.22501 0.224895 
0.221024 0.217591 0.215315 0.213328 0.211339 0.209469 0.207753 0.205941 0.204674 
0.203812 0.203231 0.202917 0.202617 0.202509 0.202444 0.202451 0.202555 0.202587 
0.202702 0.202699 0.202775 0.202734 0.202759 0.202714 0.202662 0.220285 0.220285 
0.220369 0.220097 0.220133 0.21983 0.219728 0.219475 0.219223 0.218983 0.218693 
0.21844 0.218314 0.218063 0.2182 0.218028 0.218433 0.218663 0.21962 0.220032 
0.220447 0.219811 0.221161 0.222083 0.220331 0.216579 0.212824 0.210354 0.208803 
0.207452 0.206509 0.205511 0.204938 0.204599 0.204514 0.204402 0.204482 0.20444 
0.20453 0.204602 0.204676 0.204799 0.204813 0.204928 0.20488 0.204957 0.204895 
0.204915 0.204871 0.221303 0.221303 0.221191 0.221191 0.220939 0.22089 0.220592 
0.220417 0.220146 0.21985 0.219614 0.219354 0.219119 0.219102 0.218859 0.21912 
0.219001 0.219639 0.219977 0.220833 0.22058 0.219418 0.217856 0.218262 0.217664 
0.215036 0.211443 0.208851 0.207201 0.206256 0.205488 0.205244 0.205341 0.205901 
0.206134 0.206588 0.206589 0.20684 0.206825 0.206976 0.207043 0.2071 0.207207 
0.207192 0.207292 0.207256 0.207317 0.207312 0.207339 0.222039 0.222039 0.222133 
0.22186 0.221924 0.221586 0.221535 0.221201 0.220985 0.220696 0.220391 0.220177 
0.219983 0.219786 0.219882 0.219648 0.21999 0.219948 0.220626 0.220679 0.220716 
0.219337 0.216315 0.214639 0.213974 0.212405 0.210332 0.208072 0.206514 0.205528 
0.205486 0.205719 0.206923 0.207836 0.208637 0.208827 0.209243 0.209161 0.209405 
0.209375 0.209506 0.209547 0.209591 0.20965 0.209674 0.209722 0.209785 0.209808 
0.20987 0.222964 0.222964 0.222854 0.222849 0.222604 0.222581 0.222244 0.222111 
0.221749 0.221479 0.221174 0.220875 0.220682 0.220562 0.220401 0.220566 0.220314 
0.220704 0.220533 0.220852 0.220046 0.218654 0.215535 0.212405 0.210368 0.209684 
0.209068 0.207996 0.207056 0.206582 0.206887 0.208181 0.209648 0.210753 0.211102 
0.211633 0.211554 0.211859 0.211737 0.211939 0.211898 0.211989 0.211982 0.212055 
0.212056 0.212169 0.21216 0.21229 0.21231 0.223566 0.223566 0.223657 0.223372 
0.223434 0.223104 0.223083 0.222692 0.222511 0.22211 0.22181 0.221496 0.22122 
0.221053 0.220985 0.220838 0.220967 0.22063 0.220763 0.220154 0.219301 0.21707 
0.214264 0.210769 0.208161 0.207481 0.207594 0.208006 0.208127 0.208841 0.209899 
0.211475 0.212846 0.213429 0.21405 0.21403 0.214378 0.214199 0.214435 0.214338 
0.214442 0.214394 0.214484 0.214451 0.214579 0.214549 0.214698 0.214694 0.214768 
0.224288 0.224288 0.224204 0.224171 0.22392 0.2239 0.223555 0.223455 0.223026 