# vtk DataFile Version 5.1
vtk output
ASCII
DATASET STRUCTURED_GRID
DIMENSIONS 12 99 25
POINTS 29700 float
1.44059 1 0.5 1.44059 1.003 0.5 1.44059 1.00865 0.5 
1.44059 1.01913 0.5 1.44059 1.03811 0.5 1.44059 1.07096 0.5 
1.44059 1.12363 0.5 1.44059 1.19852 0.5 1.44059 1.28865 0.5 
1.44059 1.37767 0.5 1.44059 1.45 0.5 1.44059 1.5 0.5 
1.43776 0.999016 0.5 1.43776 1.00209 0.5 1.43776 1.0078 0.5 
1.43776 1.01835 0.5 1.43776 1.03738 0.5 1.43776 1.07025 0.5 
1.43776 1.12291 0.5 1.43776 1.19775 0.5 1.43776 1.28779 0.5 
1.43776 1.37673 0.5 1.43776 1.44902 0.5 1.43776 1.49902 0.5 
1.43466 0.997942 0.5 1.43466 1.00109 0.5 1.43466 1.00689 0.5 
1.43466 1.0175 0.5 1.43466 1.03658 0.5 1.43467 1.06948 0.5 
1.43467 1.12213 0.5 1.43468 1.1969 0.5 1.43469 1.28686 0.5 
1.4347 1.37572 0.5 1.43471 1.44796 0.5 1.43471 1.49796 0.5 
1.43128 0.996768 0.5 1.43128 1.00001 0.5 1.43128 1.00588 0.5 
1.43129 1.01657 0.5 1.43129 1.03571 0.5 1.4313 1.06864 0.5 
1.43132 1.12127 0.5 1.43135 1.19599 0.5 1.43138 1.28586 0.5 
1.43141 1.37463 0.5 1.43143 1.44682 0.5 1.43145 1.49683 0.5 
1.42759 0.995488 0.5 1.42759 0.998822 0.5 1.4276 1.00479 0.5 
1.4276 1.01556 0.5 1.42762 1.03477 0.5 1.42764 1.06773 0.5 
1.42768 1.12035 0.5 1.42773 1.195 0.5 1.42779 1.28477 0.5 
1.42786 1.37346 0.5 1.42791 1.4456 0.5 1.42794 1.49561 0.5 
1.42357 0.994092 0.5 1.42357 0.99753 0.5 1.42358 1.0036 0.5 
1.42359 1.01446 0.5 1.42362 1.03374 0.5 1.42366 1.06674 0.5 
1.42372 1.11934 0.5 1.42381 1.19393 0.5 1.42392 1.2836 0.5 
1.42403 1.37219 0.5 1.42412 1.44428 0.5 1.42418 1.49431 0.5 
1.41918 0.99257 0.5 1.41919 0.996122 0.5 1.4192 1.0023 0.5 
1.41922 1.01326 0.5 1.41926 1.03262 0.5 1.41932 1.06566 0.5 
1.41943 1.11825 0.5 1.41957 1.19277 0.5 1.41974 1.28233 0.5 
1.41992 1.37083 0.5 1.42006 1.44287 0.5 1.42015 1.49291 0.5 
1.41441 0.990913 0.5 1.41442 0.994589 0.5 1.41444 1.00089 0.5 
1.41447 1.01196 0.5 1.41452 1.0314 0.5 1.41462 1.06449 0.5 
1.41477 1.11707 0.5 1.41498 1.19152 0.5 1.41523 1.28097 0.5 
1.41549 1.36936 0.5 1.41569 1.44136 0.5 1.41583 1.49141 0.5 
1.40922 0.989111 0.5 1.40923 0.992922 0.5 1.40926 0.99935 0.5 
1.4093 1.01054 0.5 1.40938 1.03007 0.5 1.40951 1.06321 0.5 
1.40972 1.11579 0.5 1.41002 1.19016 0.5 1.41037 1.27949 0.5 
1.41072 1.36778 0.5 1.41101 1.43973 0.5 1.4112 1.4898 0.5 
1.40357 0.987153 0.5 1.4036 0.99111 0.5 1.40363 0.99768 0.5 
1.40369 1.009 0.5 1.4038 1.02863 0.5 1.40397 1.06183 0.5 
1.40425 1.1144 0.5 1.40465 1.18869 0.5 1.40513 1.2779 0.5 
1.4056 1.36609 0.5 1.40598 1.43799 0.5 1.40625 1.48808 0.5 
1.39745 0.985026 0.5 1.39748 0.989143 0.5 1.39752 0.995868 0.5 
1.3976 1.00733 0.5 1.39774 1.02707 0.5 1.39797 1.06034 0.5 
1.39834 1.1129 0.5 1.39886 1.18711 0.5 1.39948 1.27619 0.5 
1.40009 1.36426 0.5 1.40059 1.43612 0.5 1.40095 1.48624 0.5 
1.3908 0.982719 0.5 1.39084 0.987011 0.5 1.3909 0.993904 0.5 
1.391 1.00552 0.5 1.39118 1.02539 0.5 1.39148 1.05872 0.5 
1.39195 1.11127 0.5 1.39261 1.1854 0.5 1.3934 1.27435 0.5 
1.39418 1.36231 0.5 1.39482 1.43412 0.5 1.39527 1.48427 0.5 
1.3836 0.980221 0.5 1.38365 0.984701 0.5 1.38373 0.991777 0.5 
1.38386 1.00356 0.5 1.38409 1.02356 0.5 1.38446 1.05697 0.5 
1.38505 1.10952 0.5 1.38587 1.18355 0.5 1.38686 1.27237 0.5 
1.38784 1.36021 0.5 1.38864 1.43197 0.5 1.3892 1.48216 0.5 
1.37582 0.977518 0.5 1.37588 0.982203 0.5 1.37598 0.989477 0.5 
1.37615 1.00144 0.5 1.37642 1.02159 0.5 1.37688 1.05508 0.5 
1.37761 1.10763 0.5 1.37862 1.18157 0.5 1.37984 1.27024 0.5 
1.38105 1.35796 0.5 1.38203 1.42968 0.5 1.38272 1.47992 0.5 
1.3674 0.974599 0.5 1.36749 0.979505 0.5 1.36761 0.986994 0.5 
1.36781 0.99915 0.5 1.36815 1.01946 0.5 1.36871 1.05305 0.5 
1.36959 1.10559 0.5 1.37082 1.17944 0.5 1.3723 1.26796 0.5 
1.37376 1.35555 0.5 1.37496 1.42722 0.5 1.3758 1.47751 0.5 
1.35833 0.97145 0.5 1.35843 0.976596 0.5 1.35859 0.984317 0.5 
1.35884 0.996685 0.5 1.35925 1.01717 0.5 1.35992 1.05085 0.5 
1.36097 1.10341 0.5 1.36245 1.17715 0.5 1.36422 1.26551 0.5 
1.36597 1.35296 0.5 1.3674 1.4246 0.5 1.36841 1.47495 0.5 
1.34856 0.968058 0.5 1.34869 0.973463 0.5 1.34888 0.981435 0.5 
1.34918 0.994034 0.5 1.34967 1.0147 0.5 1.35047 1.0485 0.5 
1.35172 1.10106 0.5 1.35347 1.17469 0.5 1.35556 1.26289 0.5 
1.35764 1.35021 0.5 1.35934 1.4218 0.5 1.36054 1.47221 0.5 
1.33806 0.964413 0.5 1.33822 0.970097 0.5 1.33845 0.97834 0.5 
1.3388 0.991186 0.5 1.33939 1.01205 0.5 1.34033 1.04597 0.5 
1.3418 1.09854 0.5 1.34385 1.17206 0.5 1.34631 1.26008 0.5 
1.34874 1.34726 0.5 1.35073 1.41881 0.5 1.35214 1.4693 0.5 
1.32679 0.960502 0.5 1.32698 0.966487 0.5 1.32726 0.975022 0.5 
1.32769 0.988134 0.5 1.32837 1.00922 0.5 1.32948 1.04327 0.5 
1.33118 1.09584 0.5 1.33357 1.16925 0.5 1.33642 1.25709 0.5 
1.33924 1.34412 0.5 1.34157 1.41563 0.5 1.34321 1.4662 0.5 
1.31472 0.956314 0.5 1.31496 0.962623 0.5 1.31529 0.97147 0.5 
1.31579 0.984869 0.5 1.31659 1.00618 0.5 1.31787 1.04038 0.5 
1.31984 1.09296 0.5 1.32259 1.16624 0.5 1.32587 1.25389 0.5 
1.32913 1.34077 0.5 1.33181 1.41224 0.5 1.33371 1.4629 0.5 
1.30183 0.95184 0.5 1.30212 0.958496 0.5 1.30251 0.967679 0.5 
1.3031 0.981385 0.5 1.30403 1.00295 0.5 1.3055 1.03729 0.5 
1.30776 1.08989 0.5 1.31089 1.16304 0.5 1.31465 1.25049 0.5 
1.31837 1.3372 0.5 1.32143 1.40864 0.5 1.32361 1.4594 0.5 
1.28809 0.947072 0.5 1.28844 0.954098 0.5 1.2889 0.963641 0.5 
1.28959 0.977675 0.5 1.29065 0.999507 0.5 1.29233 1.03401 0.5 
1.2949 1.08662 0.5 1.29846 1.15964 0.5 1.30271 1.24687 0.5 
1.30693 1.33342 0.5 1.31041 1.40482 0.5 1.31289 1.45568 0.5 
1.27349 0.942002 0.5 1.2739 0.949425 0.5 1.27444 0.95935 0.5 
1.27523 0.973734 0.5 1.27645 0.995851 0.5 1.27836 1.03053 0.5 
1.28125 1.08316 0.5 1.28526 1.15603 0.5 1.29004 1.24303 0.5 
1.29479 1.3294 0.5 1.29872 1.40076 0.5 1.30152 1.45173 0.5 
1.258 0.936626 0.5 1.25848 0.944471 0.5 1.25912 0.954804 0.5 
1.26003 0.96956 0.5 1.26141 0.991979 0.5 1.26356 1.02684 0.5 
1.2668 1.07948 0.5 1.27128 1.15221 0.5 1.27663 1.23897 0.5 
1.28194 1.32514 0.5 1.28633 1.39646 0.5 1.28948 1.44755 0.5 
1.24162 0.930941 0.5 1.24219 0.939234 0.5 1.24292 0.95 0.5 
1.24396 0.96515 0.5 1.24552 0.987889 0.5 1.24793 1.02294 0.5 
1.25154 1.07561 0.5 1.25651 1.14817 0.5 1.26244 1.23467 0.5 
1.26834 1.32064 0.5 1.27323 1.39191 0.5 1.27674 1.44313 0.5 
1.22435 0.924947 0.5 1.22501 0.933715 0.5 1.22587 0.944938 0.5 
1.22704 0.960506 0.5 1.22879 0.983583 0.5 1.23147 1.01884 0.5 
1.23546 1.07152 0.5 1.24095 1.14391 0.5 1.24748 1.23014 0.5 
1.25399 1.31589 0.5 1.25938 1.38711 0.5 1.26328 1.43846 0.5 
1.2062 0.918648 0.5 1.20697 0.927916 0.5 1.20795 0.939622 0.5 
1.20928 0.955629 0.5 1.21123 0.979061 0.5 1.21418 1.01453 0.5 
1.21857 1.06723 0.5 1.22458 1.13943 0.5 1.23174 1.22537 0.5 
1.23886 1.31088 0.5 1.24478 1.38204 0.5 1.24907 1.43353 0.5 
1.18719 0.91205 0.5 1.18808 0.921844 0.5 1.18919 0.934057 0.5 
1.19068 0.950525 0.5 1.19285 0.974329 0.5 1.19609 1.01003 0.5 
1.20088 1.06274 0.5 1.20742 1.13474 0.5 1.2152 1.22036 0.5 
1.22295 1.30561 0.5 1.22941 1.3767 0.5 1.2341 1.42833 0.5 
1.16734 0.905161 0.5 1.16836 0.915507 0.5 1.16962 0.92825 0.5 
1.17129 0.9452 0.5 1.17367 0.969392 0.5 1.17721 1.00532 0.5 
1.18241 1.05805 0.5 1.18948 1.12983 0.5 1.19788 1.21511 0.5 
1.20625 1.30008 0.5 1.21325 1.37109 0.5 1.21835 1.42286 0.5 
1.1467 0.897996 0.5 1.14786 0.908917 0.5 1.14927 0.922213 0.5 
1.15112 0.939664 0.5 1.15373 0.964259 0.5 1.15757 1.00043 0.5 
1.16317 1.05316 0.5 1.17076 1.12471 0.5 1.17978 1.20962 0.5 
1.18876 1.29429 0.5 1.19629 1.36521 0.5 1.2018 1.41712 0.5 
1.12531 0.890571 0.5 1.12661 0.90209 0.5 1.12819 0.915959 0.5 
1.13023 0.933929 0.5 1.13307 0.958941 0.5 1.13721 0.995353 0.5 
1.1432 1.04809 0.5 1.1513 1.11939 0.5 1.16091 1.2039 0.5 
1.17049 1.28824 0.5 1.17853 1.35904 0.5 1.18444 1.4111 0.5 
1.10322 0.882907 0.5 1.10469 0.895043 0.5 1.10644 0.909505 0.5 
1.10867 0.928011 0.5 1.11175 0.95345 0.5 1.11617 0.99011 0.5 
1.12255 1.04284 0.5 1.13113 1.11387 0.5 1.14128 1.19796 0.5 
1.15143 1.28193 0.5 1.15997 1.3526 0.5 1.16627 1.40479 0.5 
1.08052 0.875027 0.5 1.08215 0.887798 0.5 1.08407 0.902869 0.5 
1.0865 0.921925 0.5 1.08981 0.947802 0.5 1.09451 0.984712 0.5 
1.10124 1.03743 0.5 1.11027 1.10816 0.5 1.12094 1.19179 0.5 
1.1316 1.27537 0.5 1.1406 1.34588 0.5 1.14728 1.3982 0.5 
1.05727 0.866958 0.5 1.05907 0.88038 0.5 1.06117 0.896074 0.5 
1.06379 0.915691 0.5 1.06732 0.942013 0.5 1.07229 0.979174 0.5 
1.07935 1.03187 0.5 1.08877 1.10229 0.5 1.0999 1.18542 0.5 
1.11103 1.26855 0.5 1.12044 1.33888 0.5 1.12746 1.39132 0.5 
1.03357 0.85873 0.5 1.03553 0.872816 0.5 1.03781 0.889143 0.5 
1.04062 0.90933 0.5 1.04436 0.936102 0.5 1.04957 0.973512 0.5 
1.05691 1.02617 0.5 1.06669 1.09624 0.5 1.0782 1.17885 0.5 
1.08973 1.2615 0.5 1.09951 1.33162 0.5 1.10683 1.38416 0.5 
1.0095 0.850378 0.5 1.01163 0.865134 0.5 1.01408 0.882101 0.5 
1.01707 0.902864 0.5 1.021 0.930088 0.5 1.02643 0.967744 0.5 
1.03401 1.02035 0.5 1.04406 1.09005 0.5 1.05589 1.17209 0.5 
1.06773 1.25422 0.5 1.07781 1.32409 0.5 1.0854 1.37672 0.5 
0.985175 0.841935 0.5 0.987459 0.857365 0.5 0.990065 0.874978 0.5 
0.993223 0.896318 0.5 0.997319 0.923993 0.5 1.00293 0.961888 0.5 
1.0107 1.01443 0.5 1.02096 1.08373 0.5 1.03301 1.16515 0.5 
1.04508 1.24672 0.5 1.05537 1.3163 0.5 1.06317 1.36901 0.5 
0.960694 0.833438 0.5 0.963121 0.849543 0.5 0.965872 0.8678 0.5 
0.969174 0.889716 0.5 0.973411 0.917838 0.5 0.979155 0.955963 0.5 
0.987059 1.00843 0.5 0.997436 1.0773 0.5 1.0096 1.15806 0.5 
1.0218 1.23901 0.5 1.03223 1.30827 0.5 1.04018 1.36103 0.5 
0.936167 0.824925 0.5 0.938718 0.8417 0.5 0.941592 0.860596 0.5 
0.945012 0.883083 0.5 0.949356 0.911646 0.5 0.955188 0.949991 0.5 
0.963153 1.00236 0.5 0.973558 1.07077 0.5 0.985734 1.15083 0.5 
0.997945 1.23111 0.5 1.00842 1.3 0.5 1.01645 1.35279 0.5 
0.9117 0.816433 0.5 0.914353 0.83387 0.5 0.917324 0.853396 0.5 
0.920831 0.876445 0.5 0.925242 0.905438 0.5 0.931107 0.94399 0.5 
0.939056 0.996236 0.5 0.94939 1.06416 0.5 0.961457 1.14347 0.5 
0.973563 1.22304 0.5 0.983982 1.29152 0.5 0.992013 1.34431 0.5 
0.887404 0.808 0.5 0.890129 0.826084 0.5 0.893165 0.846228 0.5 
[...]
POINT_DATA 29700
FIELD FieldData 5
pressure 1 29700 float
0.334642 0.35871 0.294663 0.26468 0.19239 0.179126 0.178577 0.178571 0.178573 
0.178573 0.178573 0.178573 0.300532 0.291514 0.283693 0.263286 0.191004 0.178993 
0.178575 0.178572 0.178573 0.178573 0.178573 0.178573 0.300381 0.291398 0.280206 
0.248608 0.18658 0.178839 0.178573 0.178572 0.178573 0.178573 0.178573 0.178573 
0.300393 0.292179 0.276079 0.238112 0.184424 0.178771 0.178571 0.178572 0.178573 
0.178573 0.178573 0.178573 0.299622 0.291804 0.27109 0.225305 0.182411 0.178683 
0.17857 0.178573 0.178573 0.178573 0.178573 0.178573 0.297702 0.289901 0.264477 
0.213793 0.18109 0.178647 0.178569 0.178573 0.178573 0.178573 0.178573 0.178573 
0.293536 0.286145 0.255672 0.202657 0.180129 0.178609 0.178569 0.178573 0.178573 
0.178573 0.178573 0.178573 0.286729 0.279568 0.244218 0.193821 0.179537 0.178597 
0.178569 0.178574 0.178573 0.178573 0.178573 0.178573 0.277903 0.269446 0.229866 
0.187325 0.179112 0.178583 0.17857 0.178573 0.178573 0.178573 0.178573 0.178573 
0.267704 0.256675 0.213795 0.183422 0.178861 0.178576 0.178572 0.178573 0.178573 
0.178573 0.178573 0.178573 0.257104 0.240104 0.200154 0.181086 0.178708 0.17857 
0.178573 0.178573 0.178573 0.178573 0.178573 0.178573 0.245738 0.221807 0.190369 
0.179896 0.178634 0.178569 0.178574 0.178573 0.178573 0.178573 0.178573 0.178573 
0.233543 0.205289 0.184584 0.179238 0.178598 0.178569 0.178574 0.178573 0.178573 
0.178573 0.178573 0.178573 0.219652 0.193242 0.181569 0.178872 0.178577 0.178571 
0.178574 0.178573 0.178573 0.178573 0.178573 0.178573 0.205528 0.186044 0.180045 
0.178686 0.178567 0.178574 0.178573 0.178573 0.178573 0.178573 0.178573 0.178573 
0.193919 0.182265 0.179232 0.178605 0.178565 0.178575 0.178573 0.178573 0.178573 
0.178573 0.178573 0.178573 0.186161 0.180343 0.178823 0.178569 0.178569 0.178575 
0.178573 0.178573 0.178573 0.178573 0.178573 0.178573 0.181925 0.179333 0.178638 
0.178556 0.178574 0.178574 0.178573 0.178573 0.178573 0.178573 0.178573 0.178573 
0.180052 0.178862 0.178569 0.178561 0.178576 0.178574 0.178573 0.178573 0.178573 
0.178573 0.178573 0.178573 0.179186 0.178647 0.178545 0.17857 0.178576 0.178573 
0.178573 0.178573 0.178573 0.178573 0.178573 0.178573 0.178793 0.178566 0.178549 
0.178575 0.178575 0.178573 0.178573 0.178573 0.178573 0.178573 0.178573 0.178573 
0.178638 0.178545 0.178564 0.178577 0.178574 0.178573 0.178573 0.178573 0.178573 
0.178573 0.178573 0.178573 0.178575 0.178549 0.178576 0.178576 0.178573 0.178573 
0.178573 0.178573 0.178573 0.178573 0.178573 0.178573 0.178561 0.178562 0.178578 
0.178576 0.178573 0.178573 0.178573 0.178573 0.178573 0.178573 0.178573 0.178573 
0.178559 0.178575 0.178576 0.178574 0.178573 0.178573 0.178573 0.178573 0.178573 
0.178573 0.178573 0.178573 0.178564 0.17858 0.178575 0.178573 0.178573 0.178573 
0.178573 0.178573 0.178573 0.178573 0.178573 0.178573 0.17857 0.178577 0.178575 
0.178572 0.178573 0.178573 0.178573 0.178573 0.178573 0.178573 0.178573 0.178573 
0.178577 0.178574 0.178574 0.178573 0.178573 0.178573 0.178573 0.178573 0.178573 
0.178573 0.178573 0.178573 0.178578 0.178573 0.178573 0.178573 0.178573 0.178573 
0.178573 0.178573 0.178573 0.178573 0.178573 0.178573 0.178575 0.178573 0.178572 
0.178573 0.178573 0.178573 0.178573 0.178573 0.178573 0.178573 0.178573 0.178573 
0.178572 0.178574 0.178573 0.178573 0.178573 0.178573 0.178573 0.178573 0.178573 
0.178573 0.178573 0.178573 0.178572 0.178573 0.178573 0.178573 0.178573 0.178573 
0.178573 0.178573 0.178573 0.178573 0.178573 0.178573 0.178573 0.178572 0.178573 
0.178573 0.178573 0.178573 0.178573 0.178573 0.178573 0.178573 0.178573 0.178573 
0.178574 0.178573 0.178573 0.178573 0.178573 0.178573 0.178573 0.178573 0.178573 
0.178573 0.178573 0.178573 0.178573 0.178573 0.178573 0.178573 0.178573 0.178573 
0.178573 0.178573 0.178573 0.178573 0.178573 0.178573 0.178573 0.178573 0.178573 
0.178573 0.178573 0.178573 0.178573 0.178573 0.178573 0.178573 0.178573 0.178573 
0.178573 0.178573 0.178573 0.178573 0.178573 0.178573 0.178573 0.178573 0.178573 
0.178573 0.178573 0.178573 0.178573 0.178573 0.178573 0.178573 0.178573 0.178573 
0.178573 0.178573 0.178573 0.178573 0.178573 0.178573 0.178573 0.178573 0.178573 
0.178573 0.178573 0.178573 0.178573 0.178573 0.178573 0.178573 0.178573 0.178573 
0.178573 0.178573 0.178573 0.178573 0.178573 0.178573 0.178573 0.178573 0.178573 
0.178573 0.178573 0.178573 0.178573 0.178573 0.178573 0.178573 0.178573 0.178573 
0.178573 0.178573 0.178573 0.178573 0.178573 0.178573 0.178573 0.178573 0.178573 
0.178573 0.178573 0.178573 0.178573 0.178573 0.178573 0.178573 0.178573 0.178573 
0.178573 0.178573 0.178573 0.178573 0.178573 0.178573 0.178573 0.178573 0.178573 
0.178573 0.178573 0.178573 0.178573 0.178573 0.178573 0.178573 0.178573 0.178573 
0.178573 0.178573 0.178573 0.178573 0.178573 0.178573 0.178573 0.178573 0.178573 
0.178573 0.178573 0.178573 0.178573 0.178573 0.178573 0.178573 0.178573 0.178573 
0.178573 0.178573 0.178573 0.178573 0.178573 0.178573 0.178573 0.178573 0.178573 
0.178573 0.178573 0.178573 0.178573 0.178573 0.178573 0.178573 0.178573 0.178573 
0.178573 0.178573 0.178573 0.178573 0.178573 0.178573 0.178573 0.178573 0.178573 
0.178573 0.178573 0.178573 0.178573 0.178573 0.178573 0.178573 0.178573 0.178573 
0.178573 0.178573 0.178573 0.178573 0.178573 0.178573 0.178573 0.178573 0.178573 
0.178573 0.178573 0.178573 0.178573 0.178573 0.178573 0.178573 0.178573 0.178573 
0.178573 0.178573 0.178573 0.178573 0.178573 0.178573 0.178573 0.178573 0.178573 
0.178573 0.178573 0.178573 0.178573 0.178573 0.178573 0.178573 0.178573 0.178573 
0.178573 0.178573 0.178573 0.178573 0.178573 0.178573 0.178573 0.178573 0.178573 
0.178573 0.178573 0.178573 0.178573 0.178573 0.178573 0.178573 0.178573 0.178573 
0.178573 0.178573 0.178573 0.178573 0.178573 0.178573 0.178573 0.178573 0.178573 
0.178573 0.178573 0.178573 0.178573 0.178573 0.178573 0.178573 0.178573 0.178573 
0.178573 0.178573 0.178573 0.178573 0.178573 0.178573 0.178573 0.178573 0.178573 
0.178573 0.178573 0.178573 0.178573 0.178573 0.178573 0.178573 0.178573 0.178573 
0.178573 0.178573 0.178573 0.178573 0.178573 0.178573 0.178573 0.178573 0.178573 
0.178573 0.178573 0.178573 0.178573 0.178573 0.178573 0.178573 0.178573 0.178573 
0.178573 0.178573 0.178573 0.178573 0.178573 0.178573 0.178573 0.178573 0.178573 
0.178573 0.178573 0.178573 0.178573 0.178573 0.178573 0.178573 0.178573 0.178573 
0.178573 0.178573 0.178573 0.178573 0.178573 0.178573 0.178573 0.178573 0.178573 
0.178573 0.178573 0.178573 0.178573 0.178573 0.178573 0.178573 0.178573 0.178573 
0.178573 0.178573 0.178573 0.178573 0.178573 0.178573 0.178573 0.178573 0.178573 
0.178573 0.178573 0.178573 0.178573 0.178573 0.178573 0.178573 0.178573 0.178573 
0.178573 0.178573 0.178573 0.178573 0.178573 0.178573 0.178573 0.178573 0.178573 
0.178573 0.178573 0.178573 0.178573 0.178573 0.178573 0.178573 0.178573 0.178573 
0.178573 0.178573 0.178573 0.178573 0.178573 0.178573 0.178573 0.178573 0.178573 
0.178573 0.178573 0.178573 0.178573 0.178573 0.178573 0.178573 0.178573 0.178573 
0.178573 0.178573 0.178573 0.178573 0.178573 0.178573 0.178573 0.178573 0.178573 
0.178573 0.178573 0.178573 0.178573 0.178573 0.178573 0.178573 0.178573 0.178573 
0.178573 0.178573 0.178573 0.178573 0.178573 0.178573 0.178573 0.178573 0.178573 
0.178573 0.178573 0.178573 0.178573 0.178573 0.178573 0.178573 0.178573 0.178573 
0.178573 0.178573 0.178573 0.178573 0.178573 0.178573 0.178573 0.178573 0.178573 
0.178573 0.178573 0.178573 0.178573 0.178573 0.178573 0.178573 0.178573 0.178573 
0.178573 0.178573 0.178573 0.178573 0.178573 0.178573 0.178573 0.178573 0.178573 
0.178573 0.178573 0.178573 0.178573 0.178573 0.178573 0.178573 0.178573 0.178573 
0.178573 0.178573 0.178573 0.178573 0.178573 0.178573 0.178573 0.178573 0.178573 
0.178573 0.178573 0.178573 0.178573 0.178573 0.178573 0.178573 0.178573 0.178573 
0.178573 0.178573 0.178573 0.178573 0.178573 0.178573 0.178573 0.178573 0.178573 
0.178573 0.178573 0.178573 0.178573 0.178573 0.178573 0.178573 0.178573 0.178573 
0.178573 0.178573 0.178573 0.178573 0.178573 0.178573 0.178573 0.178573 0.178573 
0.178573 0.178573 0.178573 0.178573 0.178573 0.178573 0.178573 0.178573 0.178573 
0.178573 0.178573 0.178573 0.178573 0.178573 0.178573 0.178573 0.178573 0.178573 
0.178573 0.178573 0.178573 0.178573 0.178573 0.178573 0.178573 0.178573 0.178573 
0.178573 0.178573 0.178573 0.178573 0.178573 0.178573 0.178573 0.178573 0.178573 
0.178573 0.178573 0.178573 0.178573 0.178573 0.178573 0.178573 0.178573 0.178573 
0.178573 0.178573 0.178573 0.178573 0.178573 0.178573 0.178573 0.178573 0.178573 
0.178573 0.178573 0.178573 0.178573 0.178573 0.178573 0.178573 0.178573 0.178573 
0.178573 0.178573 0.178573 0.178573 0.178573 0.178573 0.178573 0.178573 0.178573 
0.178573 0.178573 0.178573 0.178573 0.178573 0.178573 0.178573 0.178573 0.178573 
0.178573 0.178573 0.178573 0.178573 0.178573 0.178573 0.178573 0.178573 0.178573 
0.178573 0.178573 0.178573 0.178573 0.178573 0.178573 0.178573 0.178573 0.178573 
0.178573 0.178573 0.178573 0.178573 0.178573 0.178573 0.178573 0.178573 0.178573 
0.178573 0.178573 0.178573 0.178573 0.178573 0.178573 0.178573 0.178573 0.178573 
0.178573 0.178573 0.178573 0.178573 0.178573 0.178573 0.178573 0.178573 0.178573 
0.178573 0.178573 0.178573 0.178573 0.178573 0.178573 0.178573 0.178573 0.178573 
0.178573 0.178573 0.178573 0.178573 0.178573 0.178573 0.178573 0.178573 0.178573 
0.178573 0.178573 0.178573 0.178573 0.178573 0.178573 0.178573 0.178573 0.178573 
0.178573 0.178573 0.178573 0.178573 0.178573 0.178573 0.178573 0.178573 0.178573 
0.178573 0.178573 0.178573 0.178573 0.178573 0.178573 0.178573 0.178573 0.178573 
0.178573 0.178573 0.178573 0.178573 0.178573 0.178573 0.178573 0.178573 0.178573 
0.178573 0.178573 0.178573 0.178573 0.178573 0.178573 0.178573 0.178573 0.178573 
0.178573 0.178573 0.178573 0.178573 0.178573 0.178573 0.178573 0.178573 0.178573 
0.178573 0.178573 0.178573 0.178573 0.178573 0.178573 0.178573 0.178573 0.178573 
0.178573 0.178573 0.178573 0.178573 0.178573 0.178573 0.178573 0.178573 0.178573 
0.178573 0.178573 0.178573 0.178573 0.178573 0.178573 0.178573 0.178573 0.178573 
0.178573 0.178573 0.178573 0.178573 0.178573 0.178573 0.178573 0.178573 0.178573 
0.178573 0.178573 0.178573 0.178573 0.178573 0.178573 0.178573 0.178573 0.178573 
0.178573 0.178573 0.178573 0.178573 0.178573 0.178573 0.178573 0.178573 0.178573 
0.178573 0.178573 0.178573 0.178573 0.178573 0.178573 0.178573 0.178573 0.178573 
0.178573 0.178573 0.178573 0.178573 0.178573 0.178573 0.178573 0.178573 0.178573 
0.178573 0.178573 0.178573 0.178573 0.178573 0.178573 0.178573 0.178573 0.178573 
0.178573 0.178573 0.178573 0.178573 0.178573 0.178573 0.178573 0.178573 0.178573 
0.178573 0.178573 0.178573 0.178573 0.178573 0.178573 0.178573 0.178573 0.178573 
0.342525 0.305566 0.28768 0.261817 0.191289 0.179085 0.178576 0.178571 0.178574 
0.178573 0.178573 0.178573 0.298435 0.290576 0.282499 0.26027 0.190091 0.178966 
0.178574 0.178572 0.178573 0.178573 0.178573 0.178573 0.298377 0.290549 0.279473 
0.245391 0.185994 0.178822 0.178573 0.178572 0.178573 0.178573 0.178573 0.178573 
0.298748 0.291211 0.27487 0.235246 0.184014 0.178759 0.178571 0.178572 0.178573 
0.178573 0.178573 0.178573 0.298146 0.290432 0.269492 0.222787 0.182157 0.178677 
0.17857 0.178573 0.178573 0.178573 0.178573 0.178573 0.296285 0.288118 0.262486 
0.211901 0.180951 0.178643 0.178569 0.178573 0.178573 0.178573 0.178573 0.178573 
0.29204 0.283888 0.253444 0.201355 0.180059 0.178607 0.178569 0.178573 0.178573 
0.178573 0.178573 0.178573 0.285124 0.276868 0.241967 0.193042 0.179495 0.178596 
0.178569 0.178574 0.178573 0.178573 0.178573 0.178573 0.27577 0.266957 0.227962 
0.186929 0.179088 0.178582 0.178571 0.178573 0.178573 0.178573 0.178573 0.178573 
0.265559 0.254574 0.212511 0.183212 0.178847 0.178576 0.178572 0.178573 0.178573 
0.178573 0.178573 0.178573 0.255054 0.238559 0.199369 0.180985 0.178701 0.17857 
0.178573 0.178573 0.178573 0.178573 0.178573 0.178573 0.244239 0.220637 0.189897 
0.179846 0.178631 0.178569 0.178574 0.178573 0.178573 0.178573 0.178573 0.178573 
0.232321 0.204515 0.18434 0.179209 0.178596 0.178569 0.178574 0.178573 0.178573 
0.178573 0.178573 0.178573 0.218746 0.192681 0.181446 0.178856 0.178576 0.178572 
0.178574 0.178573 0.178573 0.178573 0.178573 0.178573 0.204761 0.185753 0.179984 
0.178679 0.178567 0.178574 0.178573 0.178573 0.178573 0.178573 0.178573 0.178573 
0.193392 0.182107 0.179201 0.178602 0.178566 0.178575 0.178573 0.178573 0.178573 
0.178573 0.178573 0.178573 0.185853 0.180261 0.178808 0.178567 0.17857 0.178575 
0.178573 0.178573 0.178573 0.178573 0.178573 0.178573 0.181778 0.179296 0.178634 
0.178556 0.178574 0.178574 0.178573 0.178573 0.178573 0.178573 0.178573 0.178573 
0.179999 0.178846 0.178567 0.178561 0.178576 0.178573 0.178573 0.178573 0.178573 
0.178573 0.178573 0.178573 0.179159 0.17864 0.178545 0.17857 0.178576 0.178573 
0.178573 0.178573 0.178573 0.178573 0.178573 0.178573 0.178783 0.178565 0.178549 
0.178575 0.178575 0.178573 0.178573 0.178573 0.178573 0.178573 0.178573 0.178573 
0.178633 0.178545 0.178565 0.178577 0.178574 0.178573 0.178573 0.178573 0.178573 
0.178573 0.178573 0.178573 0.178574 0.17855 0.178576 0.178576 0.178573 0.178573 
0.178573 0.178573 0.178573 0.178573 0.178573 0.178573 0.17856 0.178562 0.178578 
0.178576 0.178573 0.178573 0.178573 0.178573 0.178573 0.178573 0.178573 0.178573 
0.178559 0.178576 0.178576 0.178574 0.178573 0.178573 0.178573 0.178573 0.178573 
0.178573 0.178573 0.178573 0.178564 0.17858 0.178575 0.178573 0.178573 0.178573 
0.178573 0.178573 0.178573 0.178573 0.178573 0.178573 0.178571 0.178577 0.178575 
0.178572 0.178573 0.178573 0.178573 0.178573 0.178573 0.178573 0.178573 0.178573 
0.178577 0.178574 0.178574 0.178573 0.178573 0.178573 0.178573 0.178573 0.178573 
0.178573 0.178573 0.178573 0.178577 0.178573 0.178573 0.178573 0.178573 0.178573 
0.178573 0.178573 0.178573 0.178573 0.178573 0.178573 0.178574 0.178573 0.178572 
0.178573 0.178573 0.178573 0.178573 0.178573 0.178573 0.178573 0.178573 0.178573 
0.178572 0.178574 0.178573 0.178573 0.178573 0.178573 0.178573 0.178573 0.178573 
0.178573 0.178573 0.178573 0.178572 0.178573 0.178573 0.178573 0.178573 0.178573 
0.178573 0.178573 0.178573 0.178573 0.178573 0.178573 0.178573 0.178572 0.178573 
0.178573 0.178573 0.178573 0.178573 0.178573 0.178573 0.178573 0.178573 0.178573 
0.178574 0.178573 0.178573 0.178573 0.178573 0.178573 0.178573 0.178573 0.178573 
0.178573 0.178573 0.178573 0.178573 0.178573 0.178573 0.178573 0.178573 0.178573 
0.178573 0.178573 0.178573 0.178573 0.178573 0.178573 0.178573 0.178573 0.178573 
0.178573 0.178573 0.178573 0.178573 0.178573 0.178573 0.178573 0.178573 0.178573 
0.178573 0.178573 0.178573 0.178573 0.178573 0.178573 0.178573 0.178573 0.178573 
0.178573 0.178573 0.178573 0.178573 0.178573 0.178573 0.178573 0.178573 0.178573 
0.178573 0.178573 0.178573 0.178573 0.178573 0.178573 0.178573 0.178573 0.178573 
0.178573 0.178573 0.178573 0.178573 0.178573 0.178573 0.178573 0.178573 0.178573 
0.178573 0.178573 0.178573 0.178573 0.178573 0.178573 0.178573 0.178573 0.178573 
0.178573 0.178573 0.178573 0.178573 0.178573 0.178573 0.178573 0.178573 0.178573 
0.178573 0.178573 0.178573 0.178573 0.178573 0.178573 0.178573 0.178573 0.178573 
0.178573 0.178573 0.178573 0.178573 0.178573 0.178573 0.178573 0.178573 0.178573 
0.178573 0.178573 0.178573 0.178573 0.178573 0.178573 0.178573 0.178573 0.178573 
0.178573 0.178573 0.178573 0.178573 0.178573 0.178573 0.178573 0.178573 0.178573 
0.178573 0.178573 0.178573 0.178573 0.178573 0.178573 0.178573 0.178573 0.178573 
0.178573 0.178573 0.178573 0.178573 0.178573 0.178573 0.178573 0.178573 0.178573 
0.178573 0.178573 0.178573 0.178573 0.178573 0.178573 0.178573 0.178573 0.178573 
0.178573 0.178573 0.178573 0.178573 0.178573 0.178573 0.178573 0.178573 0.178573 
0.178573 0.178573 0.178573 0.178573 0.178573 0.178573 0.178573 0.178573 0.178573 
0.178573 0.178573 0.178573 0.178573 0.178573 0.178573 0.178573 0.178573 0.178573 
0.178573 0.178573 0.178573 0.178573 0.178573 0.178573 0.178573 0.178573 0.178573 
0.178573 0.178573 0.178573 0.178573 0.178573 0.178573 0.178573 0.178573 0.178573 
0.178573 0.178573 0.178573 0.178573 0.178573 0.178573 0.178573 0.178573 0.178573 
0.178573 0.178573 0.178573 0.178573 0.178573 0.178573 0.178573 0.178573 0.178573 
0.178573 0.178573 0.178573 0.178573 0.178573 0.178573 0.178573 0.178573 0.178573 
0.178573 0.178573 0.178573 0.178573 0.178573 0.178573 0.178573 0.178573 0.178573 
0.178573 0.178573 0.178573 0.178573 0.178573 0.178573 0.178573 0.178573 0.178573 
0.178573 0.178573 0.178573 0.178573 0.178573 0.178573 0.178573 0.178573 0.178573 
0.178573 0.178573 0.178573 0.178573 0.178573 0.178573 0.178573 0.178573 0.178573 
0.178573 0.178573 0.178573 0.178573 0.178573 0.178573 0.178573 0.178573 0.178573 
0.178573 0.178573 0.178573 0.178573 0.178573 0.178573 0.178573 0.178573 0.178573 
0.178573 0.178573 0.178573 0.178573 0.178573 0.178573 0.178573 0.178573 0.178573 
0.178573 0.178573 0.178573 0.178573 0.178573 0.178573 0.178573 0.178573 0.178573 
0.178573 0.178573 0.178573 0.178573 0.178573 0.178573 0.178573 0.178573 0.178573 
0.178573 0.178573 0.178573 0.178573 0.178573 0.178573 0.178573 0.178573 0.178573 
0.178573 0.178573 0.178573 0.178573 0.178573 0.178573 0.178573 0.178573 0.178573 
0.178573 0.178573 0.178573 0.178573 0.178573 0.178573 0.178573 0.178573 0.178573 
0.178573 0.178573 0.178573 0.178573 0.178573 0.178573 0.178573 0.178573 0.178573 
0.178573 0.178573 0.178573 0.178573 0.178573 0.178573 0.178573 0.178573 0.178573 
0.178573 0.178573 0.178573 0.178573 0.178573 0.178573 0.178573 0.178573 0.178573 
0.178573 0.178573 0.178573 0.178573 0.178573 0.178573 0.178573 0.178573 0.178573 
0.178573 0.178573 0.178573 0.178573 0.178573 0.178573 0.178573 0.178573 0.178573 
0.178573 0.178573 0.178573 0.178573 0.178573 0.178573 0.178573 0.178573 0.178573 
0.178573 0.178573 0.178573 0.178573 0.178573 0.178573 0.178573 0.178573 0.178573 
0.178573 0.178573 0.178573 0.178573 0.178573 0.178573 0.178573 0.178573 0.178573 
0.178573 0.178573 0.178573 0.178573 0.178573 0.178573 0.178573 0.178573 0.178573 
0.178573 0.178573 0.178573 0.178573 0.178573 0.178573 0.178573 0.178573 0.178573 
0.178573 0.178573 0.178573 0.178573 0.178573 0.178573 0.178573 0.178573 0.178573 
0.178573 0.178573 0.178573 0.178573 0.178573 0.178573 0.178573 0.178573 0.178573 
0.178573 0.178573 0.178573 0.178573 0.178573 0.178573 0.178573 0.178573 0.178573 
0.178573 0.178573 0.178573 0.178573 0.178573 0.178573 0.178573 0.178573 0.178573 
0.178573 0.178573 0.178573 0.178573 0.178573 0.178573 0.178573 0.178573 0.178573 
0.178573 0.178573 0.178573 0.178573 0.178573 0.178573 0.178573 0.178573 0.178573 
0.178573 0.178573 0.178573 0.178573 0.178573 0.178573 0.178573 0.178573 0.178573 
0.178573 0.178573 0.178573 0.178573 0.178573 0.178573 0.178573 0.178573 0.178573 
0.178573 0.178573 0.178573 0.178573 0.178573 0.178573 0.178573 0.178573 0.178573 
0.178573 0.178573 0.178573 0.178573 0.178573 0.178573 0.178573 0.178573 0.178573 
0.178573 0.178573 0.178573 0.178573 0.178573 0.178573 0.178573 0.178573 0.178573 
0.178573 0.178573 0.178573 0.178573 0.178573 0.178573 0.178573 0.178573 0.178573 
0.178573 0.178573 0.178573 0.178573 0.178573 0.178573 0.178573 0.178573 0.178573 
0.178573 0.178573 0.178573 0.178573 0.178573 0.178573 0.178573 0.178573 0.178573 
0.178573 0.178573 0.178573 0.178573 0.178573 0.178573 0.178573 0.178573 0.178573 
0.178573 0.178573 0.178573 0.178573 0.178573 0.178573 0.178573 0.178573 0.178573 
0.178573 0.178573 0.178573 0.178573 0.178573 0.178573 0.178573 0.178573 0.178573 
0.178573 0.178573 0.178573 0.178573 0.178573 0.178573 0.178573 0.178573 0.178573 
0.178573 0.178573 0.178573 0.178573 0.178573 0.178573 0.178573 0.178573 0.178573 
0.178573 0.178573 0.178573 0.178573 0.178573 0.178573 0.178573 0.178573 0.178573 