# vtk DataFile Version 5.1
vtk output
ASCII
DATASET POLYDATA
POINTS 1016 float
1.1368 0.713197 0.5 1.13772 0.711914 0.500366 1.13891 0.710254 0.500839 
1.14044 0.708114 0.501449 1.1424 0.705365 0.502231 1.14491 0.701858 0.503231 
1.14808 0.697425 0.504494 1.15205 0.691881 0.506073 1.13496 0.712045 0.503 
1.13587 0.710762 0.503366 1.13706 0.7091 0.503839 1.13859 0.70696 0.504449 
1.14056 0.704212 0.505233 1.14306 0.700705 0.506232 1.13305 0.710858 0.506095 
1.13396 0.709575 0.506461 1.13515 0.707912 0.506934 1.14665 0.69653 0.506815 
1.153 0.690541 0.506454 1.15177 0.691706 0.506525 1.15693 0.685056 0.508017 
1.16282 0.676809 0.510367 1.16977 0.66709 0.513135 1.17773 0.655969 0.516304 
1.18651 0.643681 0.519805 1.19586 0.630615 0.523528 1.20539 0.617281 0.527327 
1.21474 0.604213 0.531049 1.22354 0.591901 0.534558 1.23155 0.580698 0.537749 
1.13682 0.705851 0.507334 1.13934 0.703452 0.507208 1.14479 0.698291 0.506919 
1.14257 0.700393 0.507042 1.14624 0.696268 0.507495 1.1502 0.690722 0.509075 
1.15508 0.683894 0.511022 1.16099 0.675641 0.513372 1.16794 0.665915 0.516143 
1.1759 0.65479 0.519313 1.18469 0.642496 0.522816 1.19404 0.629425 0.526539 
1.20357 0.616088 0.53034 1.21292 0.603021 0.534062 1.22172 0.59071 0.537569 
1.13214 0.710292 0.50757 1.13332 0.709171 0.507512 1.13623 0.706403 0.507364 
1.13485 0.70772 0.507435 1.13669 0.70577 0.507544 1.13865 0.70302 0.508328 
1.14116 0.699514 0.509328 1.14433 0.695076 0.510592 1.1483 0.689525 0.512173 
1.15319 0.682692 0.51412 1.15909 0.674435 0.516472 1.16605 0.664707 0.519244 
1.17401 0.653574 0.522417 1.18281 0.641271 0.525921 1.19216 0.628198 0.529645 
1.2017 0.614857 0.533444 1.21104 0.601791 0.537166 1.13102 0.709596 0.509384 
1.13194 0.708312 0.509749 1.13313 0.706652 0.510222 1.13466 0.704509 0.510832 
1.13663 0.701756 0.511617 1.13914 0.698247 0.512616 1.14231 0.693808 0.51388 
1.14628 0.688255 0.515462 1.15117 0.681419 0.51741 1.15708 0.673158 0.519764 
1.16404 0.66342 0.522538 1.17201 0.65228 0.525711 1.18081 0.639976 0.529215 
1.19017 0.626895 0.53294 1.19971 0.613553 0.536739 1.12881 0.708219 0.512971 
1.12973 0.706935 0.513336 1.13092 0.705274 0.513809 1.13245 0.703133 0.514418 
1.13442 0.700379 0.515202 1.13693 0.696869 0.516202 1.14011 0.692427 0.517466 
1.14408 0.68687 0.519048 1.14898 0.680028 0.520997 1.15489 0.671761 0.52335 
1.16186 0.662019 0.526125 1.16983 0.650872 0.529298 1.17863 0.638563 0.532803 
1.188 0.625479 0.536526 1.12635 0.706686 0.516969 1.12727 0.7054 0.517334 
1.12846 0.703738 0.517806 1.12999 0.701596 0.518416 1.13196 0.698845 0.519199 
1.13447 0.695332 0.520198 1.13765 0.690888 0.521462 1.14163 0.685329 0.523043 
1.14653 0.678479 0.524991 1.15245 0.670209 0.527345 1.15942 0.660459 0.530119 
1.1674 0.649309 0.53329 1.17622 0.636991 0.536793 1.12355 0.704944 0.521506 
1.12447 0.703658 0.52187 1.12566 0.701999 0.522342 1.12719 0.699855 0.522951 
1.12917 0.697102 0.523733 1.13168 0.693587 0.524731 1.13487 0.68914 0.525994 
1.13885 0.683578 0.527574 1.14375 0.676727 0.529521 1.14968 0.668449 0.531872 
1.15667 0.658691 0.534643 1.16465 0.647535 0.537812 1.12033 0.702941 0.526726 
1.12125 0.701658 0.527089 1.12244 0.699997 0.52756 1.12398 0.697852 0.528167 
1.12595 0.695099 0.528947 1.12847 0.691583 0.529944 1.13166 0.687132 0.531204 
1.13565 0.681566 0.532782 1.14056 0.674709 0.534726 1.1465 0.666425 0.537075 
1.1166 0.700608 0.532795 1.11751 0.699328 0.533157 1.11871 0.697667 0.533625 
1.12025 0.695523 0.534231 1.12222 0.692767 0.535009 1.12475 0.68925 0.536002 
1.12794 0.684799 0.537259 1.23218 0.579816 0.538 1.23139 0.580589 0.538025 
1.23862 0.570821 0.540563 1.24468 0.562339 0.542979 1.24978 0.555217 0.545008 
1.25398 0.549341 0.546682 1.25739 0.544572 0.548041 1.26013 0.54074 0.549132 
1.2623 0.537698 0.55 1.22345 0.588287 0.538259 1.22127 0.590413 0.53832 
1.22973 0.579509 0.540759 1.23679 0.569641 0.543571 1.24285 0.561164 0.545986 
1.24794 0.554047 0.548014 1.25214 0.548179 0.549685 1.25554 0.543412 0.551043 
1.25828 0.539587 0.552134 1.26045 0.536546 0.553 1.21436 0.597146 0.538489 
1.21019 0.601231 0.53858 1.21984 0.589483 0.540672 1.22785 0.578289 0.543861 
1.23491 0.568421 0.546671 1.24097 0.55995 0.549084 1.24605 0.552839 0.55111 
1.25024 0.546977 0.55278 1.25365 0.542217 0.554136 1.25638 0.538397 0.555225 
1.25855 0.53536 0.55609 1.20461 0.606701 0.538689 1.19846 0.61274 0.538796 
1.20905 0.600488 0.540459 1.21786 0.588181 0.543963 1.22586 0.576993 0.547149 
1.23291 0.567132 0.549957 1.23896 0.558668 0.552367 1.24405 0.551564 0.55439 
1.24823 0.545709 0.556058 1.25164 0.540952 0.557412 1.25436 0.537136 0.5585 
1.25653 0.534103 0.559363 1.19387 0.617266 0.538863 1.18653 0.624524 0.538945 
1.19754 0.612138 0.540322 1.20689 0.599071 0.54404 1.21569 0.586767 0.547541 
1.22369 0.575585 0.550724 1.23074 0.565729 0.553527 1.23679 0.557272 0.555935 
1.24187 0.550175 0.557954 1.24605 0.544327 0.55962 1.24945 0.539578 0.560971 
1.25218 0.535766 0.562056 1.25434 0.532738 0.562918 1.18174 0.629267 0.538989 
1.17486 0.63611 0.539031 1.18558 0.623905 0.540513 1.19513 0.610558 0.544307 
1.20448 0.597495 0.54802 1.21329 0.585196 0.551516 1.22129 0.574019 0.554693 
1.22834 0.564173 0.557492 1.23438 0.555725 0.559894 1.23945 0.548635 0.56191 
1.24363 0.542795 0.563571 1.24703 0.538054 0.56492 1.24975 0.534248 0.566002 
1.25191 0.531224 0.566862 1.154 0.656984 0.53902 1.16777 0.643182 0.539049 
1.1639 0.64705 0.539048 1.17348 0.635212 0.541312 1.18285 0.62212 0.545027 
1.19241 0.608775 0.548815 1.20176 0.595715 0.552521 1.21057 0.583421 0.55601 
1.21857 0.572251 0.55918 1.22561 0.562415 0.561971 1.23166 0.553976 0.564367 
1.23673 0.546898 0.566376 1.2409 0.541066 0.568032 1.24429 0.536331 0.569377 
1.24701 0.532533 0.570455 1.24917 0.529516 0.571312 1.13196 0.679242 0.5388 
1.13802 0.6731 0.538879 1.15138 0.659617 0.539005 1.14535 0.665693 0.538958 
1.15349 0.656664 0.539842 1.1615 0.645498 0.543005 1.17033 0.633167 0.546499 
1.17972 0.620076 0.550206 1.18929 0.60673 0.553984 1.19865 0.593671 0.557681 
1.20746 0.581386 0.561159 1.21545 0.570227 0.564319 1.2225 0.560399 0.567101 
1.22854 0.551975 0.569487 1.2336 0.544907 0.571489 1.23778 0.539085 0.573138 
1.24116 0.534362 0.574477 1.24388 0.530574 0.575549 1.24604 0.527561 0.576403 
1.11311 0.698438 0.53845 1.11424 0.697285 0.538478 1.1157 0.695792 0.53851 
1.11759 0.693864 0.53855 1.12002 0.691389 0.538594 1.12312 0.688229 0.538654 
1.13185 0.67935 0.538799 1.12704 0.684234 0.538726 1.13194 0.679229 0.538833 
1.13686 0.672367 0.540772 1.14281 0.664078 0.543115 1.14982 0.654308 0.545876 
1.15783 0.643134 0.549032 1.16669 0.630798 0.552515 1.17609 0.617702 0.556211 
1.18567 0.604358 0.559977 1.19504 0.591304 0.563659 1.20385 0.579029 0.567123 
1.21185 0.567882 0.570268 1.21889 0.558069 0.573037 1.22493 0.54966 0.575411 
1.22999 0.542607 0.577402 1.23416 0.5368 0.579042 1.11222 0.69788 0.539904 
1.11314 0.6966 0.540264 1.11433 0.69494 0.540731 1.11587 0.692795 0.541333 
1.11785 0.690038 0.542108 1.12038 0.686519 0.543097 1.12358 0.682068 0.54435 
1.12759 0.676495 0.545918 1.13252 0.669626 0.54785 1.13849 0.66133 0.550184 
1.14552 0.65155 0.552935 1.15355 0.640369 0.556078 1.16242 0.62803 0.559547 
1.17184 0.614931 0.563227 1.18144 0.601586 0.566975 1.19082 0.588545 0.570637 
1.19964 0.576279 0.574081 1.20765 0.565147 0.577208 1.10705 0.694665 0.548281 
1.10798 0.693385 0.548638 1.10917 0.691725 0.549101 1.11072 0.68958 0.549701 
1.1127 0.686826 0.55047 1.11524 0.683307 0.551454 1.11845 0.67885 0.5527 
1.12247 0.673273 0.554259 1.12742 0.666399 0.556181 1.1334 0.658094 0.558503 
1.14045 0.648307 0.561239 1.14851 0.63712 0.564366 1.15741 0.624773 0.567815 
1.16686 0.611673 0.571472 1.17647 0.598333 0.575194 1.10095 0.690862 0.55819 
1.10187 0.689581 0.558544 1.10307 0.687923 0.559004 1.10462 0.685779 0.559597 
1.10662 0.683024 0.56036 1.10916 0.679504 0.561336 1.11238 0.675044 0.562572 
1.11642 0.669464 0.56412 1.12139 0.662586 0.566028 1.1274 0.654271 0.568334 
1.13447 0.644476 0.57105 1.14257 0.633281 0.574152 1.23783 0.532263 0.579908 
1.24112 0.528846 0.580037 1.24374 0.526131 0.580129 1.21532 0.555761 0.578914 
1.22258 0.548152 0.579263 1.22869 0.541775 0.57954 1.23621 0.533944 0.579848 
1.23372 0.536524 0.579752 1.23754 0.532084 0.580372 1.24025 0.528306 0.58144 
1.24241 0.525303 0.582287 1.18679 0.585899 0.577315 1.1973 0.57475 0.57795 
1.21153 0.559749 0.578724 1.20687 0.564645 0.578482 1.21469 0.555351 0.579959 
1.22073 0.546957 0.582317 1.22578 0.539924 0.584294 1.22995 0.53413 0.585923 
1.23333 0.529431 0.587243 1.23603 0.525664 0.588302 1.23819 0.522671 0.589143 
1.15307 0.62195 0.57498 1.16423 0.609961 0.575806 1.181 0.592053 0.576947 
1.17563 0.59778 0.576593 1.18587 0.585299 0.578831 1.1947 0.573051 0.582249 
1.20271 0.561938 0.585349 1.20976 0.552166 0.588077 1.21579 0.543793 0.590415 
1.22085 0.536776 0.592374 1.22501 0.531003 0.593987 1.22838 0.526321 0.595295 
1.23109 0.522569 0.596343 1.23324 0.519588 0.597175 1.09378 0.686394 0.569825 
1.09485 0.685209 0.569938 1.09626 0.683674 0.570067 1.09806 0.68169 0.57025 
1.10039 0.67914 0.570468 1.10337 0.675882 0.570751 1.10714 0.671758 0.571102 
1.11186 0.666599 0.571536 1.11769 0.660247 0.572065 1.12474 0.652582 0.572677 
1.13305 0.643564 0.573385 1.14261 0.633228 0.574167 1.14256 0.633276 0.574163 
1.1515 0.620928 0.577574 1.16097 0.607829 0.5812 1.17061 0.594497 0.584889 
1.18003 0.581477 0.588491 1.18888 0.569244 0.591874 1.1969 0.558158 0.594942 
1.20395 0.54841 0.597639 1.20999 0.540064 0.59995 1.21504 0.533074 0.601886 
1.2192 0.527323 0.603478 1.22257 0.522663 0.60477 1.22527 0.518928 0.605805 
1.22741 0.51596 0.606626 1.09371 0.686347 0.569947 1.09463 0.685072 0.570296 
1.09584 0.683412 0.57075 1.09739 0.681273 0.571337 1.09939 0.678516 0.572091 
1.10195 0.674995 0.573057 1.10519 0.670533 0.57428 1.10924 0.664948 0.575812 
1.11424 0.658063 0.577701 1.12028 0.649741 0.579983 1.12739 0.639938 0.582672 
1.13552 0.628735 0.585742 1.1445 0.616377 0.589127 1.15401 0.603281 0.592712 
[...]
POINT_DATA 1016
FIELD FieldData 5
pressure 1 1016 float
0.306175 0.347621 0.323822 0.315196 0.307991 0.301317 0.294988 0.288536 0.311918 
0.347641 0.323834 0.315161 0.30793 0.301245 0.307382 0.322383 0.31731 0.294927 
0.287295 0.288524 0.282206 0.276011 0.269874 0.264406 0.259333 0.254748 0.250638 
0.246908 0.243306 0.239513 0.312138 0.306167 0.297798 0.300567 0.294904 0.288445 
0.282111 0.275918 0.269782 0.264317 0.259248 0.254669 0.250564 0.246841 0.243247 
0.305479 0.318754 0.313512 0.316107 0.311916 0.305156 0.298638 0.292302 0.286334 
0.280599 0.27487 0.269208 0.263765 0.258753 0.254218 0.25015 0.246479 0.303125 
0.310967 0.309306 0.306178 0.301564 0.296427 0.290775 0.285104 0.279361 0.273843 
0.268509 0.263237 0.258344 0.253886 0.249878 0.298321 0.302815 0.302249 0.30056 
0.297507 0.29351 0.288774 0.283751 0.278509 0.273222 0.26793 0.262734 0.25791 
0.253518 0.293711 0.29651 0.296201 0.295345 0.293327 0.290413 0.28654 0.282091 
0.277222 0.272207 0.267181 0.262197 0.257504 0.289135 0.291024 0.290885 0.290455 
0.289117 0.286993 0.283912 0.280135 0.275801 0.271134 0.266305 0.2615 0.284704 
0.286086 0.286013 0.2858 0.28492 0.283409 0.281018 0.277865 0.274037 0.269758 
0.280376 0.281446 0.281392 0.281296 0.28071 0.279644 0.277823 0.239136 0.239508 
0.235314 0.230639 0.225417 0.219479 0.212205 0.202268 0.185629 0.242427 0.243169 
0.239475 0.235286 0.230614 0.225395 0.219457 0.212184 0.202251 0.185672 0.245135 
0.246372 0.242937 0.239193 0.235025 0.230354 0.2251 0.219098 0.21187 0.202011 
0.186164 0.247963 0.249704 0.246239 0.242704 0.238947 0.234753 0.230038 0.224732 
0.218678 0.211481 0.201882 0.187876 0.251089 0.253325 0.249583 0.245996 0.242487 
0.238734 0.23452 0.229771 0.224433 0.218371 0.211268 0.20221 0.190265 0.254962 
0.257226 0.253207 0.249329 0.245776 0.242272 0.238509 0.234275 0.229501 0.224156 
0.218132 0.211199 0.202754 0.192529 0.265417 0.259888 0.261305 0.256953 0.252762 
0.248977 0.245484 0.242023 0.238276 0.234037 0.229246 0.223896 0.217918 0.211174 
0.203367 0.194603 0.275288 0.272632 0.266614 0.269265 0.265256 0.260706 0.256335 
0.252272 0.248564 0.245132 0.241705 0.23797 0.23373 0.228933 0.223602 0.217707 
0.211212 0.20403 0.196467 0.277009 0.278098 0.278311 0.27861 0.278577 0.278187 
0.275329 0.277112 0.275274 0.272007 0.26821 0.26405 0.259767 0.255574 0.25164 
0.248046 0.2447 0.241333 0.237634 0.233403 0.228619 0.223325 0.217546 0.276175 
0.277011 0.276952 0.276925 0.276539 0.275802 0.274452 0.272439 0.269713 0.266389 
0.262632 0.258645 0.25466 0.250881 0.247412 0.24417 0.240886 0.237226 0.272181 
0.272796 0.272727 0.272717 0.272449 0.271927 0.270927 0.269373 0.267157 0.264328 
0.260983 0.257308 0.25355 0.249955 0.246642 0.268339 0.268693 0.268632 0.268635 
0.268444 0.268068 0.267328 0.266136 0.264362 0.26199 0.259054 0.255716 0.21133 
0.2046 0.197582 0.233084 0.228426 0.22324 0.213789 0.217534 0.211342 0.204783 
0.198232 0.243649 0.240625 0.234911 0.237151 0.233028 0.228276 0.22306 0.21745 
0.211587 0.205642 0.199936 0.252587 0.249469 0.245141 0.246511 0.243531 0.240333 
0.236745 0.232593 0.227911 0.222817 0.217427 0.211952 0.206599 0.201634 0.26458 
0.26487 0.264898 0.265052 0.265081 0.265017 0.264691 0.264012 0.262813 0.26102 
0.25861 0.255701 0.255714 0.252255 0.248891 0.245753 0.242752 0.239647 0.23614 
0.232077 0.22751 0.222598 0.217499 0.21245 0.207671 0.203361 0.264541 0.264754 
0.264675 0.264698 0.264557 0.264293 0.263738 0.262825 0.261413 0.259441 0.25691 
0.253962 0.250818 0.247696 0.244704 0.241804 0.238802 0.235415 0.231487 0.227093 
0.222426 0.217683 0.213094 0.208866 0.205138 0.260749 0.260994 0.260882 0.260871 
0.260726 0.260497 0.260063 0.259342 0.258221 0.256603 0.254481 0.25195 0.249166 
0.246304 0.243464 0.240685 0.237818 0.256374 0.256799 0.256725 0.256742 0.256665 
0.234628 0.230956 0.226793 0.222368 0.217879 0.21354 0.209549 0.206018 0.256574 
0.256392 0.255991 0.25526 0.254114 0.252507 0.250483 0.248142 0.245615 0.243024 
0.24044 0.235511 0.237733 0.234601 0.23087 0.226703 0.222346 0.218009 0.213904 
0.210212 0.206996 0.256102 0.256557 0.256537 0.256616 0.256599 0.256622 0.256515 
0.256203 0.255651 0.254756 0.25345 0.251703 0.249579 0.247189 0.244629 0.241995 
0.239362 0.236674 0.2337 0.230242 0.226386 0.222388 0.218488 0.214874 0.211692 
0.208946 0.251761 0.251969 0.251986 0.252031 0.252037 0.251995 0.251842 0.251497 
0.250836 0.249822 0.24845 0.246766 0.244806 0.242584 0.240185 0.237742 0.235298 
0.232666 0.229605 0.226158 0.22258 0.219139 0.216 0.213289 0.210969 0.249343 
0.249516 0.249527 0.2496 0.249623 0.249605 0.249464 0.249144 0.248576 0.247739 
0.246631 0.245261 0.243599 0.241618 0.239405 0.237115 0.234818 0.232341 0.229429 
0.226104 0.222622 0.219255 0.216178 0.213515 0.211233 0.247529 0.247703 0.247679 
0.247745 0.247745 0.247693 0.247494 0.247095 0.246469 0.245622 0.244586 0.243364 
0.241878 0.240054 0.237957 0.235764 0.233605 0.231363 0.228802 0.225869 0.222782 
0.219807 0.217125 0.214836 0.21289 0.243355 0.243674 0.24367 0.243753 0.243781 
0.243751 0.24358 0.24322 0.242678 0.241991 0.24116 0.240136 0.23883 0.237221 
0.235405 0.233537 0.23174 0.229963 0.227986 0.225664 0.223123 0.220622 0.218354 
0.216407 0.214753 0.242411 0.242759 0.242771 0.242868 0.242916 0.24291 0.242767 
0.242438 0.241935 0.241307 0.240547 0.239592 0.238349 0.236805 0.235062 0.23327 
0.231542 0.229832 0.227918 0.22565 0.223148 0.220673 0.218422 0.216487 0.214841 
0.23436 0.232982 0.231459 0.229988 0.228664 0.227479 0.2263 0.224933 0.223295 
0.221539 0.219855 0.218334 0.217006 0.237848 0.238242 0.238232 0.238294 0.238246 
0.238101 0.23781 0.237417 0.236975 0.236526 0.236031 0.235341 0.236959 0.237415 
0.237429 0.237528 0.237515 0.237408 0.237164 0.236846 0.236519 0.236215 0.235875 
0.235305 0.235336 0.234225 0.232712 0.231069 0.229504 0.228111 0.226887 0.225726 
0.224471 0.223034 0.221512 0.220045 0.218714 0.217548 0.229832 0.228687 0.227486 
0.226344 0.225313 0.224406 0.223591 0.222818 0.222011 0.221134 0.220209 0.219312 
0.218485 0.226315 0.228847 0.229508 0.230221 0.230774 0.231235 0.231585 0.231781 
0.231831 0.231787 0.231543 0.230914 0.221085 0.224796 0.225965 0.227201 0.22823 
0.229119 0.229877 0.230459 0.23084 0.231082 0.231087 0.229937 0.230694 0.229804 
0.228426 0.227011 0.225679 0.224489 0.223452 0.222531 0.221698 0.220915 0.220161 
0.219417 0.21872 0.218098 0.222074 0.221302 0.220602 0.219937 0.219327 0.218798 
0.218351 0.217938 0.217553 0.217222 0.202379 0.205631 0.207052 0.208857 0.210987 
0.213546 0.216585 0.220031 0.223258 0.225277 0.226077 0.226012 0.225275 0.224193 
0.22301 0.185037 0.187169 0.18879 0.191098 0.194443 0.199014 0.204773 0.211333 
0.217645 0.221893 0.223877 0.224531 0.224338 0.223711 0.222627 0.222903 0.22189 
0.220897 0.219998 0.219147 0.218373 0.217705 0.217151 0.216668 0.216252 0.215912 
0.215211 0.214691 0.214261 0.213889 0.213588 0.213351 0.183169 0.184681 0.185793 
0.187358 0.189641 0.192788 0.19678 0.201367 0.206068 0.210139 0.213377 0.216008 
0.217929 0.218663 0.218613 0.218177 0.217514 0.216709 0.215859 0.185761 0.191181 
0.198788 0.206304 0.212289 0.215488 0.216765 0.217076 0.216882 0.216398 0.215621 
0.215797 0.215028 0.214326 0.213771 0.213313 0.21295 0.212666 0.179331 0.179613 
0.179805 0.180053 0.180399 0.180856 0.181555 0.182787 0.178805 0.178928 0.179037 
0.179194 0.179448 0.179862 0.180699 0.18344 0.18249 0.185515 0.190098 0.196126 
0.201584 0.205659 0.208019 0.209433 0.210267 0.210678 0.210737 0.210562 0.21029 
0.210003 0.209733 0.209494 0.209297 0.209136 0.196732 0.201259 0.204332 0.206211 
0.207256 0.207798 0.208056 0.208163 0.20819 0.208187 0.208169 0.178654 0.178704 
0.178746 0.178809 0.178907 0.179066 0.179333 0.179898 0.180949 0.182492 0.184571 
0.186934 0.189462 0.19256 0.178562 0.178562 0.178566 0.17857 0.178579 0.1786 
0.178641 0.178731 0.178936 0.179377 0.180273 0.182398 0.186042 0.19498 0.191139 
0.19632 0.199412 0.20116 0.202023 0.202401 0.202543 0.202579 0.202567 0.20254 
0.20251 0.202494 0.178562 0.178563 0.178565 0.178569 0.178576 0.178593 0.178625 
0.178691 0.17883 0.179123 0.179639 0.180763 0.182579 0.184818 0.187162 0.189061 
0.190425 0.19139 0.192124 0.192705 0.193175 0.193538 0.193832 0.194047 0.194248 
0.179877 0.181197 0.183028 0.185095 0.187076 0.188826 0.190294 0.191482 0.192405 
0.193128 0.193663 0.194107 0.178569 0.178568 0.178568 0.178569 0.17857 0.178574 
0.17858 0.178596 0.178632 0.178705 0.178828 0.179042 0.179349 0.178575 0.178575 
0.178574 0.178574 0.178572 0.17857 0.178566 0.178564 0.178565 0.178579 0.17863 
0.178773 0.179565 0.17914 0.179817 0.180803 0.181986 0.18316 0.184153 0.184921 
0.185487 0.185891 0.186166 0.186362 0.186483 0.186591 0.178575 0.178575 0.178574 
0.178574 0.178572 0.178571 0.178568 0.178566 0.178566 0.178573 0.178599 0.178662 
0.178795 0.179012 0.179275 0.17956 0.179843 0.18008 0.180258 0.18038 0.180451 
0.180482 0.180495 0.180489 0.180491 0.178377 0.178221 0.178174 0.178254 0.178429 
0.178649 0.178866 0.179055 0.179217 0.179343 0.179455 0.178574 0.178574 0.178574 
0.178573 0.178573 0.178573 0.178572 0.17857 0.178569 0.17857 0.178575 0.178579 
0.178572 0.178512 0.178573 0.178573 0.178573 0.178573 0.178573 0.178573 0.178573 
0.178573 0.178572 0.17857 0.17857 0.178564 0.178545 0.178439 0.17849 
velocity_u 1 1016 float
0.87181 0.639624 0.658246 0.661834 0.663503 0.663757 0.662953 0.660984 0.851753 
0.808927 0.825521 0.829273 0.831526 0.832519 0.860764 0.847167 0.852072 0.79407 
0.660337 0.686679 0.65775 0.653255 0.646339 0.637662 0.628167 0.618268 0.6085 
0.599455 0.591892 0.586472 0.855701 0.852276 0.832489 0.842299 0.832493 0.831464 
0.829138 0.825575 0.819537 0.811359 0.80219 0.792465 0.782764 0.773726 0.766191 
0.864736 0.851826 0.855989 0.853719 0.85764 0.864114 0.87002 0.875251 0.879535 
0.883102 0.886038 0.888041 0.888543 0.887142 0.883994 0.879678 0.874904 0.869717 
0.861884 0.863046 0.865952 0.870354 0.875456 0.881039 0.886683 0.892403 0.897937 
0.903335 0.908264 0.911859 0.913893 0.914827 0.876381 0.871348 0.871374 0.872645 
0.875323 0.879091 0.883717 0.88885 0.894388 0.900113 0.905992 0.911735 0.916583 
0.920292 0.881582 0.878376 0.878145 0.87859 0.88019 0.882858 0.88664 0.891222 
0.896343 0.901628 0.907083 0.912582 0.917511 0.88641 0.884187 0.883898 0.884004 
0.885013 0.886955 0.889999 0.893927 0.898429 0.90316 0.908126 0.913277 0.890973 
0.889349 0.88912 0.889129 0.889813 0.891251 0.893682 0.89697 0.900789 0.904846 
0.895378 0.894213 0.894083 0.894098 0.894616 0.895698 0.897584 0.586203 0.602475 
0.583486 0.582789 0.584067 0.587391 0.593009 0.602531 0.622007 0.765049 0.791454 
0.760935 0.758284 0.758107 0.760064 0.764247 0.771043 0.782243 0.804723 0.873284 
0.89208 0.870625 0.867725 0.866658 0.86752 0.870233 0.874818 0.881673 0.892524 
0.911793 0.914869 0.919581 0.914913 0.915006 0.915611 0.917145 0.91979 0.923598 
0.928629 0.935369 0.945054 0.960457 0.922032 0.921021 0.923106 0.925509 0.927934 
0.930743 0.934196 0.938303 0.94315 0.948758 0.955646 0.964501 0.977003 0.919877 
0.917777 0.921485 0.924752 0.92773 0.930861 0.934422 0.938538 0.943197 0.948423 
0.954281 0.9611 0.969413 0.979817 0.909103 0.914968 0.913471 0.918025 0.922005 
0.925325 0.928421 0.931701 0.935407 0.939644 0.944402 0.949672 0.955543 0.962166 
0.969913 0.978717 0.900174 0.902503 0.907939 0.905434 0.909282 0.914067 0.918644 
0.92255 0.925871 0.928996 0.932309 0.936034 0.940263 0.944994 0.950214 0.955989 
0.962355 0.969492 0.97705 0.898915 0.897805 0.897458 0.897101 0.897055 0.897393 
0.900135 0.898416 0.900191 0.903245 0.906698 0.910742 0.915213 0.919523 0.923275 
0.926518 0.929607 0.932898 0.936599 0.940802 0.945509 0.950683 0.956336 0.899835 
0.89904 0.899019 0.899054 0.899436 0.900178 0.901479 0.903338 0.905737 0.908789 
0.912581 0.916723 0.920681 0.924188 0.927297 0.930302 0.933515 0.937167 0.904351 
0.903782 0.903784 0.903772 0.903973 0.904384 0.905189 0.906468 0.908399 0.91122 
0.914798 0.918536 0.922059 0.925264 0.928209 0.908744 0.908328 0.908273 0.908178 
0.908212 0.908372 0.908831 0.909755 0.911466 0.91416 0.917371 0.920544 0.962422 
0.969074 0.976061 0.941274 0.945813 0.950838 0.960025 0.956375 0.962426 0.968938 
0.975482 0.930943 0.933841 0.939477 0.937267 0.941356 0.946047 0.951171 0.956688 
0.962455 0.968375 0.97406 0.923169 0.925792 0.929595 0.928351 0.931094 0.934216 
0.937825 0.942017 0.9467 0.951755 0.95707 0.962474 0.967785 0.972719 0.91301 
0.912392 0.912145 0.911817 0.911559 0.911366 0.911455 0.912019 0.91334 0.915445 
0.917939 0.920557 0.920546 0.923547 0.926444 0.929217 0.932026 0.935142 0.938784 
0.942969 0.947558 0.95241 0.957389 0.96233 0.967008 0.971263 0.913051 0.912508 
0.912365 0.912165 0.912074 0.912096 0.912468 0.9134 0.915133 0.917483 0.919963 
0.922485 0.925097 0.927726 0.930403 0.93329 0.936514 0.940126 0.944111 0.94838 
0.95283 0.957338 0.961743 0.965808 0.969469 0.916413 0.915847 0.915855 0.915847 
0.916009 0.916358 0.917025 0.918055 0.91939 0.920853 0.922481 0.924434 0.926671 
0.929207 0.9321 0.935227 0.938361 0.921171 0.921076 0.92128 0.921418 0.921637 
0.941488 0.944854 0.94866 0.952772 0.957012 0.961185 0.965048 0.968539 0.921813 
0.921956 0.92216 0.922513 0.923145 0.924203 0.925734 0.927742 0.930165 0.932855 
0.935643 0.940639 0.938478 0.941529 0.944948 0.948713 0.952725 0.956807 0.960764 
0.964367 0.967571 0.921515 0.921377 0.92151 0.921565 0.92175 0.921685 0.921889 
0.922179 0.922515 0.922979 0.923733 0.924935 0.926614 0.928865 0.931653 0.93462 
0.9373 0.939669 0.942165 0.945209 0.948826 0.95273 0.956622 0.960263 0.963493 
0.966276 0.926608 0.92643 0.926351 0.926215 0.92608 0.925957 0.925908 0.926012 
0.926389 0.927139 0.928376 0.930146 0.932355 0.934652 0.936701 0.938576 0.940604 
0.943095 0.946188 0.949701 0.95332 0.956768 0.959897 0.962583 0.964884 0.928767 
0.928474 0.92836 0.928194 0.92805 0.927937 0.927961 0.928214 0.928785 0.929651 
0.930751 0.932087 0.933675 0.935437 0.937289 0.939203 0.941253 0.943635 0.946539 
0.94987 0.953346 0.956692 0.959744 0.962376 0.964635 0.930348 0.929975 0.929889 
0.929757 0.929686 0.92969 0.929901 0.930423 0.931286 0.932328 0.933351 0.934294 
0.935279 0.936625 0.938568 0.940835 0.943049 0.945213 0.947613 0.95038 0.953342 
0.956241 0.958874 0.961149 0.963074 0.935104 0.93464 0.934544 0.934386 0.934265 
0.934202 0.934298 0.93463 0.935164 0.935756 0.936473 0.93747 0.938644 0.939948 
0.941525 0.943359 0.945217 0.947007 0.948924 0.951149 0.953595 0.956027 0.958245 
0.960169 0.961805 0.936148 0.935672 0.935562 0.935383 0.935228 0.93512 0.935155 
0.935412 0.935856 0.936372 0.937059 0.938052 0.939203 0.940434 0.94191 0.943656 
0.945447 0.947178 0.949035 0.951205 0.953609 0.956012 0.958209 0.960118 0.961744 
0.943559 0.944722 0.946128 0.947573 0.948904 0.950076 0.951216 0.952527 0.954104 
0.955796 0.957427 0.958899 0.960193 0.940757 0.940337 0.940281 0.940163 0.940124 
0.940151 0.940286 0.9405 0.940793 0.941248 0.941911 0.942701 0.941686 0.941212 
0.941125 0.940963 0.940878 0.940853 0.940927 0.941063 0.941254 0.941581 0.942081 
0.942734 0.942707 0.943707 0.945021 0.946566 0.948117 0.94951 0.950703 0.951809 
0.952999 0.954372 0.955835 0.957253 0.958542 0.959678 0.948493 0.949491 0.950538 
0.951531 0.952424 0.953219 0.953948 0.954659 0.95542 0.95626 0.957156 0.958029 
0.958837 0.951448 0.949405 0.948691 0.947996 0.947454 0.947009 0.946687 0.946544 
0.946561 0.946669 0.946928 0.94751 0.956389 0.953478 0.952255 0.951072 0.95009 
0.949246 0.948534 0.948001 0.947657 0.947435 0.947416 0.948403 0.947747 0.948521 
0.949748 0.95101 0.9522 0.953272 0.954224 0.955086 0.955878 0.956629 0.957358 
0.958078 0.958757 0.959364 0.955894 0.95662 0.957283 0.957904 0.95847 0.958958 
0.95937 0.959753 0.960115 0.960426 0.975495 0.972717 0.971229 0.969432 0.967304 
0.964751 0.961731 0.958326 0.955155 0.953163 0.952328 0.952334 0.952965 0.953926 
0.955015 0.993429 0.991225 0.989548 0.987176 0.98376 0.979129 0.973353 0.966833 
0.960622 0.956455 0.954472 0.953787 0.953888 0.954405 0.95538 0.955124 0.956089 
0.957055 0.957933 0.958751 0.959493 0.96013 0.96066 0.961122 0.961524 0.961849 
0.962884 0.963373 0.96378 0.96413 0.964416 0.964636 0.995331 0.993763 0.992608 
0.990993 0.988652 0.985448 0.981422 0.976831 0.97216 0.968094 0.964836 0.962201 
0.960264 0.959523 0.959571 0.960001 0.960652 0.961438 0.962267 0.992534 0.986983 
0.979292 0.971797 0.965885 0.962734 0.961473 0.961149 0.961318 0.961769 0.962498 
0.962333 0.963067 0.963739 0.964273 0.964712 0.965062 0.965331 0.99923 0.998938 
0.998735 0.998475 0.998115 0.997638 0.996906 0.995613 0.999765 0.999637 0.999523 
0.999358 0.999092 0.998659 0.997782 0.994933 0.995915 0.992789 0.988096 0.982004 
0.976562 0.972536 0.970189 0.968766 0.967908 0.967473 0.967389 0.967539 0.967787 
0.968053 0.968307 0.968531 0.96872 0.968869 0.98141 0.976847 0.973758 0.971868 
0.970808 0.970253 0.96998 0.969863 0.969825 0.969823 0.969831 0.999918 0.999868 
0.999821 0.999756 0.999652 0.999486 0.999207 0.998618 0.997526 0.995941 0.993819 
0.991413 0.98883 0.985656 1.00001 1.00001 1.00001 0.999999 0.999993 0.999972 
0.999929 0.999837 0.999623 0.999165 0.998234 0.996031 0.99228 0.983185 0.98708 
0.981831 0.978731 0.976993 0.976144 0.975778 0.975648 0.975625 0.975648 0.975686 
0.975726 0.975749 1.00001 1.00001 1.00001 1 0.999995 0.999979 0.999947 
0.999879 0.999733 0.999429 0.998893 0.997728 0.995857 0.993575 0.991205 0.989307 
0.987955 0.987007 0.986293 0.985735 0.98529 0.984947 0.984674 0.984474 0.98429 
0.998666 0.997329 0.995485 0.993408 0.991421 0.98967 0.988207 0.987027 0.986113 
0.9854 0.984869 0.984436 1 1 1 1 1 0.999997 
0.999994 0.999976 0.999942 0.999863 0.999736 0.999515 0.999202 0.999998 0.999998 
0.999998 0.999999 1 1 1.00001 1.00001 1.00001 0.999994 0.999942 
0.999794 0.998984 0.999418 0.998727 0.99773 0.996541 0.995362 0.994369 0.993599 
0.993032 0.992628 0.992353 0.992157 0.992033 0.991925 0.999998 0.999998 0.999998 
0.999999 1 1 1.00001 1.00001 1.00001 0.999999 0.999972 0.999907 
0.999774 0.999552 0.999282 0.998998 0.99872 0.998481 0.998299 0.998173 0.998096 
0.998059 0.99804 0.998041 0.998033 1.0002 1.00036 1.00041 1.00033 1.00014 
0.999919 0.999692 0.999494 0.999324 0.999192 0.999073 0.999999 0.999999 0.999999 
0.999999 1 0.999999 1 1 1 1 0.999996 0.999993 
1 1.00007 1 1 1 1 1 1 1 
1 1 1 1 1.00001 1.00003 1.00014 1.00009 
velocity_v 1 1016 float
0.177269 0.207005 0.18038 0.163772 0.150571 0.138805 0.127706 0.116949 0.214476 
0.245921 0.221117 0.203039 0.187941 0.174133 0.19778 0.219147 0.211508 0.153418 
0.114891 0.121603 0.106451 0.0960237 0.085681 0.0760453 0.0670352 0.0587525 0.0512628 
0.0446104 0.0385481 0.0325847 0.202642 0.190301 0.166963 0.175869 0.160956 0.147841 
0.134876 0.121771 0.108698 0.0968294 0.0856749 0.0753532 0.0659699 0.0575908 0.0498993 
0.192147 0.212171 0.205246 0.209067 0.202616 0.191664 0.180816 0.170133 0.159835 
0.149502 0.138635 0.127302 0.116015 0.105129 0.0947322 0.0850691 0.0763008 0.185113 
0.197132 0.195271 0.190737 0.183864 0.175914 0.167179 0.158246 0.148973 0.139601 
0.130152 0.120654 0.111456 0.102602 0.0943269 0.175821 0.183411 0.183191 0.181066 
0.176774 0.170862 0.163699 0.155806 0.14722 0.138221 0.129128 0.120202 0.111655 
0.10357 0.168433 0.173247 0.173334 0.172398 0.169726 0.165502 0.159661 0.15264 
0.144674 0.136291 0.12783 0.119365 0.111065 0.161473 0.164764 0.164928 0.164497 
0.162757 0.159677 0.155002 0.149003 0.141928 0.134269 0.126391 0.118343 0.154889 
0.157251 0.157344 0.157102 0.155917 0.15366 0.149959 0.144917 0.138744 0.131938 
0.148413 0.150149 0.15015 0.149993 0.149147 0.147486 0.144615 0.032021 0.0334717 
0.0262637 0.0193475 0.0116515 0.00279112 -0.0080644 -0.0230536 -0.0494513 0.0482418 0.0543247 
0.0422352 0.0340424 0.0250121 0.0149364 0.00331851 -0.0110595 -0.0309789 -0.0663704 0.0732317 
0.0807625 0.0681685 0.0601957 0.0519033 0.0430231 0.0332624 0.0223092 0.00918541 -0.00854181 
-0.0376299 0.0903209 0.0953742 0.0866857 0.0793814 0.0719559 0.0640865 0.0556096 0.0463349 
0.0360058 0.0238122 0.00779528 -0.0159618 0.0990024 0.103315 0.0961462 0.0893486 0.0827652 
0.0759424 0.0685619 0.060515 0.0516672 0.0417529 0.0302196 0.015484 -0.00412127 0.106395 