# vtk DataFile Version 5.1
vtk output
ASCII
DATASET POLYDATA
POINTS 1393 float
1.63259 0.358951 0.358459 1.63171 0.361818 0.356472 1.63059 0.36547 0.35394 
1.62916 0.370105 0.350735 1.64141 0.361665 0.346925 1.639 0.364072 0.346925 
1.63595 0.36713 0.346925 1.62747 0.375604 0.346925 1.63207 0.371006 0.346925 
1.62736 0.375965 0.346675 1.62509 0.383336 0.341574 1.62225 0.39255 0.3352 
1.61873 0.403974 0.327296 1.64215 0.361893 0.345957 1.64123 0.364761 0.344009 
1.64006 0.368405 0.341535 1.63858 0.373023 0.338397 1.63671 0.378852 0.334438 
1.63436 0.386174 0.329466 1.65148 0.364766 0.333754 1.65053 0.367634 0.331836 
1.64933 0.371272 0.329398 1.6478 0.375874 0.326326 1.63026 0.394966 0.324774 
1.61761 0.407615 0.324774 1.62068 0.404547 0.324774 1.61442 0.418 0.31758 
1.60918 0.435011 0.305809 1.6441 0.381129 0.324774 1.63212 0.393102 0.324774 
1.63795 0.387272 0.324774 1.63141 0.395313 0.323277 1.62777 0.406633 0.315597 
1.62329 0.420519 0.306191 1.65835 0.366879 0.324774 1.65593 0.3693 0.324774 
1.65286 0.372365 0.324774 1.64702 0.378206 0.324774 1.64899 0.376241 0.324774 
1.64586 0.381673 0.322467 1.64344 0.388947 0.317613 1.6404 0.398015 0.311585 
1.63665 0.409234 0.304116 1.66064 0.367585 0.321775 1.65966 0.370453 0.319887 
1.65842 0.374085 0.317495 1.65685 0.378672 0.314478 1.65487 0.384443 0.310687 
1.65238 0.39167 0.30595 1.66967 0.370364 0.309966 1.66867 0.373233 0.308097 
1.6674 0.37686 0.30574 1.6658 0.381431 0.302769 1.60682 0.442686 0.300497 
1.61336 0.436139 0.300497 1.60292 0.455343 0.291737 1.59557 0.479221 0.275209 
1.62058 0.428925 0.300497 1.62773 0.421771 0.300497 1.61786 0.437351 0.294789 
1.61137 0.457462 0.281168 1.64893 0.400569 0.300497 1.63482 0.414678 0.300497 
1.63945 0.41005 0.300497 1.63204 0.422984 0.294976 1.62644 0.439642 0.283918 
1.66267 0.386834 0.300497 1.6495 0.400003 0.300497 1.65656 0.392939 0.300497 
1.64927 0.400669 0.300061 1.64543 0.41179 0.29278 1.64071 0.425409 0.283881 
1.67691 0.372593 0.300497 1.67448 0.375025 0.300497 1.67141 0.378097 0.300497 
1.66457 0.384935 0.300497 1.66754 0.381966 0.300497 1.66378 0.387175 0.299045 
1.66124 0.394358 0.294402 1.65808 0.403289 0.288631 1.65416 0.414316 0.281524 
1.67861 0.373116 0.298274 1.67759 0.375986 0.296424 1.6763 0.379608 0.294092 
1.67468 0.384166 0.291154 1.67263 0.389883 0.287487 1.67006 0.397023 0.282917 
1.66686 0.405889 0.277251 1.6875 0.375853 0.286647 1.68647 0.378725 0.284805 
1.68517 0.382342 0.282488 1.68353 0.386888 0.279582 1.68147 0.39258 0.27595 
1.69638 0.378588 0.275032 1.59506 0.480864 0.274072 1.5965 0.479432 0.274072 
1.58711 0.506692 0.256198 1.60799 0.467938 0.274072 1.61706 0.45887 0.274072 
1.60375 0.481081 0.265169 1.59499 0.508263 0.246747 1.62146 0.454465 0.274072 
1.63423 0.441696 0.274072 1.61976 0.459538 0.270702 1.61192 0.482904 0.255176 
1.6355 0.440429 0.274072 1.64839 0.427537 0.274072 1.63499 0.441896 0.273114 
1.62815 0.461582 0.260268 1.65004 0.425885 0.274072 1.65995 0.415977 0.274072 
1.64936 0.427805 0.272835 1.64354 0.444126 0.262334 1.63659 0.463605 0.249805 
1.67686 0.399068 0.274072 1.66505 0.410873 0.274072 1.66932 0.406612 0.274072 
1.6629 0.416823 0.270277 1.65805 0.430186 0.261764 1.65217 0.446343 0.251487 
1.69467 0.381254 0.274072 1.6916 0.384323 0.274072 1.68775 0.38818 0.274072 
1.6804 0.39553 0.274072 1.68291 0.393018 0.274072 1.67889 0.399678 0.271432 
1.67567 0.408481 0.265849 1.67169 0.419323 0.258987 1.66682 0.432563 0.250617 
1.69584 0.380084 0.274072 1.69711 0.378814 0.274072 1.69535 0.381462 0.273188 
1.69405 0.385076 0.270874 1.69241 0.389609 0.267981 1.69035 0.395277 0.264373 
1.68777 0.402335 0.259895 1.68456 0.411076 0.254364 1.68059 0.42183 0.24758 
1.7053 0.381333 0.263367 1.70428 0.38421 0.26151 1.70298 0.387821 0.259199 
1.70135 0.392343 0.256307 1.69931 0.397989 0.252701 1.69675 0.405007 0.248243 
1.71429 0.3841 0.25161 1.71328 0.386981 0.249739 1.71201 0.39059 0.2474 
1.58236 0.522114 0.245523 1.57761 0.537557 0.234833 1.59441 0.510069 0.245523 
1.59601 0.508463 0.245523 1.58514 0.538824 0.226036 1.60704 0.497435 0.245523 
1.61984 0.484638 0.245523 1.60289 0.509802 0.237308 1.59274 0.540062 0.217198 
1.6203 0.484175 0.245523 1.62012 0.484699 0.245181 1.61088 0.511317 0.227803 
1.63421 0.470262 0.245523 1.64006 0.46442 0.245523 1.62843 0.486476 0.235094 
1.61903 0.512815 0.218155 1.64875 0.455724 0.245523 1.65693 0.447548 0.245523 
1.64515 0.465617 0.239233 1.6369 0.488244 0.224856 1.66384 0.440634 0.245523 
1.67084 0.433637 0.245523 1.66092 0.448558 0.240522 1.65388 0.467629 0.228491 
1.69141 0.413063 0.245523 1.67938 0.425094 0.245523 1.6822 0.422278 0.245523 
1.67574 0.434947 0.239313 1.66986 0.450782 0.229358 1.66285 0.46965 0.2175 
1.70961 0.394863 0.245523 1.70483 0.399652 0.245523 1.69518 0.409299 0.245523 
1.69885 0.405628 0.245523 1.69357 0.413688 0.242742 1.68965 0.424354 0.235996 
1.68485 0.437351 0.227799 1.67904 0.453025 0.217935 1.71894 0.385532 0.245523 
1.7165 0.387972 0.245523 1.71097 0.393508 0.245523 1.71345 0.39103 0.245523 
1.7104 0.395103 0.244497 1.70839 0.400726 0.240884 1.70588 0.407707 0.236413 
1.70276 0.416329 0.230911 1.69892 0.426909 0.224171 1.69421 0.439785 0.216005 
1.7234 0.386903 0.239697 1.72241 0.389788 0.237802 1.72117 0.393397 0.235433 
1.71961 0.3979 0.23249 1.71765 0.403503 0.228847 1.71521 0.410447 0.224343 
1.71218 0.419011 0.218809 1.73266 0.389755 0.227585 1.73171 0.392645 0.225645 
1.73051 0.396254 0.223236 1.72901 0.400749 0.220241 1.72712 0.406332 0.216548 
1.74213 0.392671 0.215199 1.56876 0.56631 0.214926 1.56722 0.57133 0.21145 
1.55617 0.607227 0.186603 1.57986 0.555212 0.214926 1.57436 0.572295 0.203345 
1.5916 0.543478 0.214926 1.5947 0.54037 0.214926 1.58163 0.573233 0.195137 
1.60404 0.53103 0.214926 1.60049 0.541278 0.208232 1.58911 0.574148 0.186742 
1.61724 0.517832 0.214926 1.62177 0.513302 0.214926 1.60846 0.542477 0.199063 
1.63121 0.503861 0.214926 1.64516 0.489919 0.214926 1.62741 0.514305 0.208285 
1.61673 0.543665 0.189605 1.64593 0.489144 0.214926 1.64561 0.490011 0.214379 
1.63608 0.515792 0.198128 1.66132 0.47375 0.214926 1.66496 0.470114 0.214926 
1.65461 0.491787 0.203603 1.64513 0.517284 0.187586 1.67727 0.457807 0.214926 
1.68147 0.453607 0.214926 1.67212 0.471691 0.206189 1.66398 0.493581 0.192439 
1.70618 0.42889 0.214926 1.69359 0.441487 0.214926 1.69507 0.440005 0.214926 
1.68853 0.4553 0.20617 1.68175 0.473761 0.194489 1.7225 0.412577 0.214926 
1.71003 0.425044 0.214926 1.71521 0.419867 0.214926 1.70844 0.429506 0.212054 
1.70388 0.442263 0.203857 1.69837 0.457617 0.194013 1.73991 0.395162 0.214926 
1.73688 0.398198 0.214926 1.73309 0.401983 0.214926 1.72628 0.40879 0.214926 
1.72837 0.406704 0.214926 1.72477 0.413241 0.211989 1.72186 0.421748 0.206392 
1.71828 0.432158 0.199562 1.7139 0.444795 0.191305 1.74201 0.393067 0.214926 
1.74234 0.392735 0.214926 1.74123 0.395567 0.213203 1.74008 0.399176 0.210744 
1.73865 0.403664 0.207686 1.73686 0.409229 0.203911 1.73463 0.416104 0.199266 
1.73187 0.424554 0.193576 1.72847 0.434879 0.186651 1.75186 0.395666 0.202474 
1.75101 0.398569 0.200421 1.74994 0.40218 0.19788 1.74859 0.406662 0.194748 
1.74692 0.412209 0.190871 1.74483 0.419049 0.186121 1.76191 0.398758 0.189332 
1.76112 0.401668 0.187212 1.76013 0.405281 0.184589 1.55431 0.613275 0.182417 
1.55997 0.607614 0.182417 1.54478 0.644226 0.160994 1.56442 0.603164 0.182417 
1.56289 0.607912 0.179198 1.55107 0.644672 0.154258 1.57524 0.592346 0.182417 
1.56981 0.60857 0.17162 1.58683 0.580756 0.182417 1.59299 0.574595 0.182417 
1.577 0.609203 0.163797 1.59927 0.568308 0.182417 1.59688 0.575043 0.178077 
1.58455 0.60981 0.15564 1.61263 0.55495 0.182417 1.62305 0.54453 0.182417 
1.60502 0.575922 0.169058 1.62689 0.540689 0.182417 1.62536 0.544846 0.179794 
1.61361 0.576787 0.159603 1.64207 0.525509 0.182417 1.64959 0.517992 0.182417 
1.63445 0.546026 0.169524 1.62273 0.577641 0.149629 1.65806 0.509522 0.182417 
1.67243 0.495149 0.182417 1.65462 0.518789 0.176591 1.64407 0.54721 0.15872 
1.67473 0.492858 0.182417 1.69173 0.475856 0.182417 1.67379 0.4954 0.18081 
1.66462 0.520313 0.165067 1.69185 0.475734 0.182417 1.70779 0.459795 0.182417 
1.6918 0.475871 0.182329 1.68409 0.497254 0.168656 1.67521 0.521863 0.152927 
1.70917 0.458418 0.182417 1.72101 0.446569 0.182417 1.70862 0.459987 0.181393 
1.70233 0.478031 0.169639 1.69494 0.499151 0.155909 1.7406 0.426984 0.182417 
1.72638 0.441206 0.182417 1.73182 0.435764 0.182417 1.72433 0.447395 0.178275 
1.71933 0.462423 0.168247 1.71338 0.480251 0.156369 1.75807 0.409512 0.182417 
1.75345 0.414137 0.182417 1.74319 0.424397 0.182417 1.74771 0.419876 0.182417 
1.74225 0.427443 0.180307 1.73907 0.437682 0.173248 1.73521 0.450076 0.164714 
1.73054 0.464936 0.154524 1.7672 0.400385 0.182417 1.76479 0.402793 0.182417 
1.7593 0.408285 0.182417 1.7618 0.405788 0.182417 1.75889 0.409758 0.181352 
1.75734 0.415287 0.177373 1.75542 0.422094 0.172486 1.75304 0.430431 0.166529 
1.75012 0.440583 0.159297 1.74656 0.452852 0.150588 1.77233 0.401965 0.175705 
1.77161 0.404884 0.173506 1.77071 0.408501 0.170789 1.76959 0.412972 0.167438 
1.76818 0.418484 0.163336 1.76644 0.425256 0.158304 1.76429 0.433535 0.152175 
1.78319 0.405311 0.161499 1.78255 0.408238 0.159212 1.78175 0.411858 0.156392 
1.78075 0.416324 0.152926 1.77951 0.421819 0.148671 1.53908 0.662728 0.148191 
1.5334 0.68117 0.13543 1.5482 0.653611 0.148191 1.55677 0.645034 0.148191 
1.53926 0.681429 0.129311 1.55807 0.643739 0.148191 1.55762 0.645088 0.147292 
1.54543 0.681654 0.122916 1.56879 0.633015 0.148191 1.5645 0.645474 0.140026 
1.552 0.681842 0.116158 1.58047 0.621336 0.148191 1.59149 0.610317 0.148191 
1.57181 0.645827 0.132363 1.59318 0.608631 0.148191 1.59254 0.610393 0.147067 
1.57964 0.646146 0.124214 1.60699 0.594817 0.148191 1.60107 0.610952 0.137978 
1.5881 0.646428 0.115472 1.62189 0.579921 0.148191 1.62405 0.577756 0.148191 
1.61023 0.611486 0.128284 1.63788 0.563929 0.148191 1.6535 0.548309 0.148191 
[...]
POINT_DATA 1393
FIELD FieldData 5
pressure 1 1393 float
0.438169 0.43816 0.438133 0.438144 0.438098 0.438102 0.43807 0.438182 0.438088 
0.438183 0.438309 0.438416 0.438561 0.43809 0.438079 0.438013 0.437948 0.437864 
0.437835 0.437972 0.43796 0.437904 0.437883 0.437897 0.438578 0.438451 0.438617 
0.438747 0.437857 0.437826 0.437834 0.437818 0.438014 0.43816 0.437889 0.437895 
0.437864 0.437872 0.437871 0.437846 0.437803 0.437673 0.437674 0.437852 0.437835 
0.437777 0.437754 0.437733 0.437749 0.437649 0.437634 0.437585 0.437576 0.438805 
0.438526 0.438897 0.438906 0.438218 0.438031 0.438271 0.438399 0.4377 0.43776 
0.437619 0.437877 0.438046 0.437588 0.437704 0.437688 0.437699 0.437476 0.437586 
0.437533 0.43754 0.437521 0.437572 0.437545 0.437565 0.437604 0.437619 0.437453 
0.437505 0.43749 0.437442 0.437416 0.437407 0.437436 0.437442 0.437429 0.437416 
0.437375 0.437357 0.437358 0.437321 0.438881 0.438858 0.438514 0.438405 0.438262 
0.438448 0.438124 0.438151 0.437861 0.438201 0.438308 0.437817 0.437363 0.437843 
0.438059 0.437351 0.437468 0.437337 0.437602 0.437891 0.437375 0.437461 0.437398 
0.43749 0.437218 0.437388 0.43732 0.437295 0.437323 0.43736 0.437343 0.437369 
0.437321 0.437472 0.437248 0.437318 0.437314 0.437314 0.437274 0.437304 0.437303 
0.437377 0.437315 0.437404 0.437272 0.437272 0.437247 0.437277 0.437279 0.437391 
0.437197 0.437194 0.437189 0.438159 0.437758 0.438083 0.438117 0.437356 0.438168 
0.438225 0.43805 0.43727 0.438217 0.438222 0.438053 0.437947 0.437814 0.438128 
0.438061 0.437533 0.437326 0.437719 0.438021 0.437262 0.437307 0.437296 0.437541 
0.437373 0.437403 0.437396 0.437402 0.437308 0.437376 0.437213 0.437278 0.437395 
0.43738 0.437395 0.437373 0.437502 0.437376 0.437197 0.437194 0.4372 0.437185 
0.437207 0.437279 0.437345 0.437454 0.437396 0.437477 0.437196 0.437194 0.437166 
0.437197 0.437252 0.437325 0.437454 0.43718 0.437185 0.437154 0.437189 0.437208 
0.43721 0.437434 0.437388 0.437647 0.437121 0.436933 0.437206 0.437276 0.436762 
0.437562 0.437358 0.436726 0.437949 0.438057 0.437506 0.438036 0.437888 0.438103 
0.43765 0.437867 0.437884 0.438113 0.437438 0.437359 0.43775 0.438024 0.437355 
0.437402 0.437295 0.437498 0.437449 0.437477 0.437471 0.437437 0.437182 0.43732 
0.43746 0.437429 0.437456 0.437341 0.437324 0.437211 0.43718 0.437198 0.437248 
0.437213 0.437312 0.437344 0.437407 0.437156 0.43721 0.437207 0.43721 0.437183 
0.437193 0.437223 0.43726 0.437199 0.437222 0.437071 0.437068 0.437026 0.43705 
0.43708 0.437116 0.436921 0.436922 0.436866 0.437633 0.437353 0.437394 0.437111 
0.437116 0.436917 0.436837 0.436821 0.436732 0.436739 0.436612 0.43692 0.43674 
0.436438 0.437373 0.437735 0.43678 0.437814 0.437747 0.436847 0.437959 0.437913 
0.437738 0.436916 0.43767 0.437189 0.437758 0.437672 0.43714 0.436998 0.437136 
0.437421 0.436999 0.437102 0.436997 0.436843 0.437043 0.43709 0.437042 0.437084 
0.436868 0.436592 0.437091 0.437105 0.437151 0.436986 0.436902 0.436683 0.436896 
0.436946 0.437086 0.437062 0.437066 0.436984 0.436829 0.436711 0.436789 0.436831 
0.436878 0.436826 0.43688 0.436856 0.436901 0.436886 0.436787 0.436664 0.436654 
0.436653 0.436604 0.436603 0.436606 0.436642 0.436671 0.436462 0.436462 0.436408 
0.4364 0.436419 0.437043 0.436678 0.436758 0.436712 0.436198 0.436689 0.436676 
0.435983 0.43655 0.436436 0.435793 0.436409 0.436312 0.436183 0.436323 0.43629 
0.435925 0.436514 0.436159 0.435679 0.436865 0.436927 0.436096 0.437306 0.437564 
0.43699 0.436108 0.437547 0.437554 0.437043 0.437102 0.43688 0.437296 0.437035 
0.436592 0.436458 0.436632 0.437005 0.436484 0.436551 0.43639 0.436381 0.436574 
0.436626 0.436494 0.436368 0.436666 0.43663 0.436636 0.436549 0.436411 0.436376 
0.436489 0.436651 0.436613 0.436638 0.436541 0.436473 0.436342 0.436328 0.436352 
0.436325 0.436355 0.436419 0.436414 0.436431 0.436488 0.4365 0.43645 0.436317 
0.436326 0.436278 0.43629 0.436311 0.436352 0.436407 0.436415 0.436219 0.436236 
0.436193 0.436214 0.436248 0.436223 0.43648 0.436463 0.436741 0.435966 0.435872 
0.436133 0.435806 0.435612 0.435825 0.435724 0.435687 0.435417 0.435678 0.435593 
0.435221 0.435649 0.435389 0.435015 0.435616 0.435614 0.435183 0.435692 0.435508 
0.434987 0.435947 0.43612 0.435381 0.436393 0.436139 0.435306 0.436918 0.437027 
0.43621 0.437006 0.436793 0.436978 0.436259 0.436642 0.436261 0.436707 0.436751 
0.436261 0.436259 0.436338 0.436362 0.436371 0.436174 0.436046 0.436465 0.436342 
0.436342 0.436329 0.436161 0.436464 0.436418 0.436477 0.436329 0.436268 0.436316 
0.436381 0.436414 0.436412 0.436417 0.436501 0.436349 0.436242 0.436196 0.436215 
0.436306 0.436249 0.436317 0.436385 0.436418 0.436411 0.436483 0.436236 0.43622 
0.436245 0.436208 0.436237 0.436288 0.436347 0.436433 0.436463 0.436216 0.436241 
0.436208 0.436236 0.436297 0.436349 0.436238 0.436973 0.437142 0.438068 0.436289 
0.436602 0.437551 0.435856 0.435774 0.436298 0.437257 0.435536 0.435585 0.436048 
0.43526 0.435351 0.435791 0.435017 0.434939 0.435118 0.4349 0.434838 0.434889 
0.434858 0.434841 0.434683 0.434668 0.434872 0.434813 0.43455 0.435084 0.435323 
0.434747 0.434466 0.43546 0.435332 0.43473 0.436018 0.436227 0.43534 0.436402 
0.436436 0.436165 0.435389 0.436395 0.436393 0.436039 0.436051 0.436012 0.436006 
0.436078 0.43615 0.435833 0.435632 0.436215 0.436249 0.436089 0.435672 0.436306 
0.436358 0.43619 0.435919 0.436426 0.436482 0.436483 0.436379 0.436099 0.436453 
0.436453 0.436468 0.436428 0.436445 0.4363 0.436266 0.436224 0.436246 0.436298 
0.436356 0.436349 0.436458 0.436472 0.436432 0.436374 0.436256 0.436216 0.436265 
0.436221 0.43624 0.43628 0.436318 0.436388 0.43636 0.435893 0.435919 0.435885 
0.435908 0.435969 0.438585 0.438941 0.439733 0.440321 0.437834 0.4384 0.439071 
0.439675 0.437277 0.437238 0.438032 0.438637 0.436722 0.436991 0.437684 0.438241 
0.436127 0.435536 0.43669 0.437289 0.435523 0.435528 0.436341 0.436829 0.435106 
0.435267 0.435958 0.43471 0.434621 0.435021 0.435567 0.43451 0.434504 0.434797 
0.434451 0.434447 0.434364 0.43455 0.43473 0.434408 0.434248 0.434764 0.434735 
0.434444 0.435234 0.435447 0.434916 0.435702 0.43588 0.435518 0.435109 0.435875 
0.43586 0.435555 0.435625 0.435561 0.435538 0.435542 0.435594 0.435266 0.435196 
0.43572 0.435787 0.435447 0.434983 0.43588 0.436017 0.43563 0.435163 0.436153 
0.436237 0.435904 0.43536 0.436337 0.436354 0.436363 0.436081 0.435696 0.436093 
0.436272 0.436339 0.436334 0.436267 0.436125 0.435828 0.43438 0.434633 0.434959 
0.435297 0.436022 0.435743 0.436054 0.43614 0.436119 0.436023 0.434035 0.434067 
0.43419 0.434249 0.434451 0.434655 0.434957 0.419057 0.419383 0.421741 0.440734 
0.440951 0.441097 0.441475 0.441404 0.441349 0.439802 0.439467 0.440143 0.439991 
0.440333 0.440252 0.440333 0.439143 0.439249 0.439688 0.439628 0.440083 0.439872 
0.44011 0.43847 0.437928 0.438834 0.439247 0.439265 0.439841 0.439547 0.437741 
0.437807 0.438356 0.438747 0.438798 0.439454 0.437007 0.436511 0.437331 0.43781 
0.438121 0.438204 0.436265 0.436348 0.436812 0.437159 0.437368 0.435625 0.435414 
0.435854 0.436226 0.436407 0.435034 0.43457 0.435191 0.435345 0.435571 0.434567 
0.434568 0.434862 0.434814 0.434308 0.434244 0.434424 0.434476 0.434314 0.434585 
0.43425 0.434198 0.434591 0.434587 0.434224 0.434995 0.435168 0.434698 0.435372 
0.435515 0.435226 0.434799 0.435504 0.435482 0.435264 0.435209 0.435169 0.435254 
0.434959 0.434914 0.434834 0.434989 0.43503 0.434738 0.434544 0.435117 0.43526 
0.434866 0.434478 0.435429 0.435599 0.43515 0.434583 0.435871 0.435718 0.435747 
0.435459 0.434934 0.435243 0.435873 0.435685 0.43584 0.435468 0.435067 0.422712 
0.426302 0.429859 0.435075 0.43327 0.43511 0.435195 0.435223 0.435083 0.421985 
0.421904 0.423189 0.4248 0.42713 0.429328 0.431362 0.439932 0.439873 0.439357 
0.439906 0.439333 0.439249 0.439204 0.439579 0.438461 0.438017 0.438898 0.438704 
0.439158 0.437403 0.437198 0.437459 0.438122 0.437955 0.438463 0.436431 0.436243 
0.436485 0.43666 0.437097 0.436974 0.437488 0.435569 0.435374 0.435566 0.435582 
0.435704 0.435816 0.435867 0.434799 0.434588 0.434786 0.434761 0.434582 0.43434 
0.434194 0.434179 0.434003 0.43382 0.43403 0.433946 0.433909 0.433482 0.433931 
0.434161 0.433836 0.433279 0.434173 0.434157 0.433484 0.434686 0.434821 0.434105 
0.435096 0.435214 0.434807 0.433964 0.435191 0.434975 0.435111 0.434565 0.434915 
0.434907 0.434678 0.434544 0.434512 0.434427 0.434418 0.434382 0.434234 0.434427 
0.43448 0.434169 0.433932 0.434668 0.434786 0.434332 0.433862 0.434897 0.43499 
0.434579 0.434147 0.433854 0.435077 0.435061 0.434759 0.434337 0.431493 0.432838 
0.433599 0.436862 0.434528 0.435328 0.435893 0.435863 0.436456 0.434472 0.433927 
0.434455 0.434606 0.43539 0.436784 0.433127 0.433663 0.433565 0.433294 0.433457 
0.434784 0.438126 0.444246 0.433125 0.432744 0.433123 0.432575 0.432572 0.434718 
0.432708 0.432734 0.432619 0.432068 0.432208 0.432759 0.433191 0.432609 0.431708 
0.431883 0.433256 0.433142 0.431992 0.433958 0.433962 0.432774 0.434387 0.434461 
0.433635 0.434442 0.434407 0.434081 0.434258 0.434106 0.43411 0.433543 0.434059 
0.434004 0.433602 0.433926 0.433922 0.433653 0.433815 0.43384 0.433566 0.434039 
0.434078 0.433704 0.433939 0.43424 0.434245 0.433857 0.433384 0.433883 0.433898 
0.433851 0.440402 0.447359 0.45392 0.434461 0.439374 0.438078 0.441144 0.455352 
0.481817 0.433974 0.433379 0.435003 0.446412 0.474885 0.521449 0.562041 0.431715 
0.432108 0.432025 0.435555 0.451722 0.495989 0.431767 0.43209 0.431725 0.435389 
0.454261 0.432322 0.432801 0.432144 0.434868 0.433032 0.433446 0.432831 0.434477 
0.433495 0.433413 0.434189 0.433546 0.433542 0.433834 0.433601 0.433557 0.433535 
0.433588 0.433519 0.433432 0.433469 0.433387 0.433401 0.433592 0.433396 0.433347 
0.433225 0.433727 0.433384 0.433384 0.433012 0.43373 0.433722 0.433483 0.531011 
0.542406 0.56573 0.482305 0.509184 0.501939 0.554947 0.577339 0.587227 0.447709 
0.462764 0.458888 0.508737 0.566527 0.586915 0.446091 0.440961 0.452127 0.509042 
0.568214 0.439841 0.437291 0.44703 0.496849 0.437108 0.435657 0.441706 0.435693 
0.434717 0.437798 0.434731 0.433947 0.435465 0.433967 0.434076 0.439622 0.433703 
0.433637 0.435974 0.433578 0.433333 0.434259 0.433254 0.433475 0.433384 0.4337 
0.433777 0.578916 0.578788 0.570136 0.581653 0.583803 0.578548 0.574164 0.535681 
0.568364 0.568267 0.573112 0.569918 0.565683 0.477397 0.515841 0.50727 0.557864 
0.572405 0.477175 0.458196 0.478019 0.547681 0.457798 0.446872 0.460233 0.525374 
0.446826 0.447513 0.495827 0.442243 0.440761 0.467987 0.440318 0.437917 0.449767 
0.437912 0.43582 0.44075 0.435779 0.436105 0.43636 0.436107 0.436111 0.447559 
0.563777 0.564656 0.564515 0.563807 0.564324 0.562882 0.563035 0.566139 0.569206 
0.563851 0.560887 0.561718 0.563432 0.560534 0.558014 0.564572 0.568333 0.570162 
0.542958 0.537733 0.570652 0.572955 0.51593 0.509337 0.564098 0.494474 0.482953 
0.542267 0.478267 0.464571 0.504632 0.464154 0.451066 0.472277 0.451066 0.451076 
0.505079 0.457335 0.489279 0.56765 0.565573 0.563854 0.572996 0.570207 0.570232 
0.576448 0.583492 0.589542 0.581931 0.573557 0.573882 0.580211 0.587146 0.57918 
0.574876 0.585223 0.587041 0.566665 0.565918 0.581432 0.556432 0.543516 0.578075 
0.541316 0.550238 0.589967 0.513961 0.515158 0.576844 0.518024 0.565974 0.587792 
0.588409 0.589898 0.585736 0.587889 0.587564 0.589946 0.590336 0.588409 0.58758 
0.587654 0.586695 0.586289 0.588216 0.587127 0.588343 0.58663 0.586682 0.587346 
0.583355 0.589964 0.589969 0.582602 0.579778 0.579135 0.589478 0.574742 0.584117 
0.590244 0.587539 0.589954 0.588929 0.589713 0.585467 0.586209 0.586123 0.585138 
0.583474 0.585907 0.585526 0.583973 0.583183 0.582738 0.581614 0.582069 0.582418 
0.576929 0.587419 0.586353 0.580398 0.581592 0.5782 0.583713 0.581891 0.582606 
0.583133 0.583049 0.582142 0.581848 0.581891 0.58166 0.57986 0.581167 0.579964 
0.580251 0.576708 0.576623 0.575562 0.579146 0.579167 0.575311 0.577208 0.575703 
0.57907 0.579686 0.579171 0.57889 0.579048 0.578454 0.577644 0.579099 0.577893 
0.578528 0.576987 0.575424 0.574862 0.574967 0.57481 0.575065 0.572944 0.575137 
0.574036 0.577006 0.577173 0.575595 0.576847 0.576732 0.576285 0.574488 0.573795 
0.57416 0.57267 0.572878 0.572156 0.573709 0.572818 0.576051 0.574533 0.57602 
0.575576 0.575983 0.574017 0.573262 0.574013 0.572172 0.572285 0.572257 0.572796 
0.574356 0.575328 0.574269 0.573437 0.574296 0.57482 0.572789 0.572396 0.572509 
0.572989 0.572819 0.572842 0.57416 0.574904 0.573888 0.573249 0.573559 0.573963 
0.573989 0.574184 0.575297 0.57605 0.574401 0.575229 0.575314 0.576107 0.577132 
0.579872 0.578116 0.579859 0.582838 0.586056 0.585829 0.592665 
velocity_u 1 1393 float
0.368133 0.497522 0.578816 0.633615 0.368223 0.497602 0.578812 0.677904 0.633574 
0.680812 0.723268 0.7505 0.757592 0.368236 0.497648 0.578875 0.633566 0.680695 
0.723052 0.368245 0.497599 0.578744 0.633158 0.750618 0.757819 0.757659 0.758474 
0.758672 0.680149 0.743942 0.722735 0.750645 0.757925 0.75874 0.368201 0.497527 
0.578666 0.652007 0.633101 0.680057 0.722361 0.750428 0.758104 0.368223 0.49755 
0.57865 0.63291 0.679581 0.721694 0.368342 0.497647 0.578646 0.632705 0.758739 
0.758804 0.75883 0.758524 0.758843 0.758816 0.758958 0.759104 0.750048 0.75842 
0.758117 0.758932 0.759102 0.679182 0.74793 0.721396 0.750036 0.758187 0.759159 
0.368376 0.497656 0.578613 0.661028 0.632656 0.679146 0.721138 0.749752 0.758145 
0.368398 0.497693 0.57864 0.632552 0.678801 0.720625 0.749518 0.36843 0.497705 
0.57857 0.632293 0.678328 0.368471 0.758537 0.758549 0.758811 0.758971 0.759173 
0.75884 0.759058 0.759191 0.759226 0.759221 0.758963 0.759235 0.759328 0.75924 
0.759334 0.759177 0.758092 0.759345 0.759431 0.75947 0.720141 0.753406 0.749443 
0.758043 0.759404 0.759607 0.497733 0.578521 0.63216 0.695646 0.678248 0.719967 
0.749173 0.757947 0.759353 0.435765 0.36847 0.497727 0.578469 0.631954 0.677721 
0.719131 0.748686 0.757882 0.368369 0.497587 0.578195 0.631495 0.677015 0.718238 
0.368243 0.497447 0.577909 0.759089 0.759405 0.759092 0.759059 0.759628 0.759041 
0.759046 0.759102 0.759614 0.759055 0.759048 0.75909 0.759379 0.759534 0.759128 
0.759079 0.759621 0.759661 0.759606 0.75922 0.759526 0.759297 0.759678 0.75974 
0.748228 0.75821 0.757865 0.759228 0.759645 0.75986 0.631057 0.676542 0.732982 
0.718024 0.74808 0.757806 0.75916 0.759561 0.368135 0.497366 0.612248 0.577846 
0.631013 0.676234 0.717296 0.747425 0.757684 0.759178 0.368032 0.497218 0.577503 
0.630412 0.675385 0.716255 0.746741 0.367771 0.496928 0.577041 0.629738 0.674467 
0.367425 0.759591 0.75962 0.759027 0.759762 0.759913 0.759653 0.75959 0.760014 
0.759394 0.759523 0.760018 0.759145 0.759082 0.759402 0.759139 0.759334 0.759042 
0.759284 0.759356 0.759338 0.759027 0.759787 0.75987 0.759457 0.759082 0.759647 
0.759531 0.759907 0.759653 0.757548 0.759211 0.759182 0.759502 0.759959 0.715387 
0.752912 0.746519 0.757512 0.759255 0.759572 0.496608 0.576656 0.629402 0.688929 
0.67433 0.715171 0.746128 0.757379 0.759343 0.385088 0.36742 0.496592 0.576554 
0.629102 0.673622 0.714151 0.745473 0.757297 0.367369 0.496594 0.576351 0.628637 
0.672835 0.713091 0.367279 0.496554 0.5761 0.758949 0.759255 0.758812 0.759492 
0.759457 0.759216 0.759795 0.759708 0.759962 0.759997 0.75989 0.759855 0.75999 
0.760043 0.759498 0.75921 0.759944 0.759157 0.75919 0.759873 0.759093 0.759157 
0.759159 0.759797 0.759404 0.759878 0.759259 0.759172 0.75992 0.760043 0.759916 
0.759487 0.760041 0.759716 0.760044 0.760113 0.759751 0.759688 0.759384 0.759726 
0.760095 0.760275 0.744814 0.758358 0.757268 0.759402 0.759808 0.760185 0.628148 
0.672319 0.733222 0.712787 0.74469 0.757225 0.759445 0.759893 0.367268 0.496576 
0.610995 0.576065 0.628101 0.671996 0.71195 0.743808 0.757091 0.75949 0.36721 
0.496541 0.575801 0.627531 0.671058 0.710728 0.742846 0.366962 0.496346 0.575376 
0.626844 0.669977 0.759251 0.759638 0.759413 0.759401 0.759988 0.759435 0.759423 
0.760121 0.759677 0.75956 0.760224 0.759936 0.760152 0.759703 0.760151 0.760163 
0.759844 0.760058 0.760219 0.759972 0.759828 0.759784 0.760221 0.759454 0.759225 
0.759709 0.760163 0.759243 0.75923 0.75964 0.75966 0.759865 0.759402 0.75962 
0.760176 0.760357 0.760025 0.759606 0.760328 0.760254 0.760389 0.760182 0.760109 
0.759927 0.760283 0.76037 0.756935 0.759602 0.759496 0.759971 0.760328 0.760337 
0.709821 0.750374 0.742559 0.756877 0.759496 0.760014 0.760376 0.366644 0.49611 
0.575135 0.626581 0.673625 0.669943 0.709401 0.74176 0.756604 0.759472 0.3666 
0.496007 0.574898 0.625986 0.668853 0.707921 0.740501 0.756246 0.366275 0.495703 
0.574342 0.625134 0.667676 0.365843 0.760123 0.760157 0.759377 0.760412 0.760567 
0.759837 0.760418 0.76073 0.760092 0.760337 0.76028 0.760842 0.760222 0.760322 
0.760952 0.760119 0.760416 0.761063 0.760032 0.760001 0.760509 0.760091 0.760081 
0.760593 0.760138 0.76013 0.760174 0.759978 0.760101 0.760227 0.75968 0.759621 
0.760013 0.759607 0.759757 0.759627 0.759935 0.759887 0.760237 0.759827 0.759755 
0.76024 0.760239 0.760112 0.760333 0.760339 0.760331 0.760334 0.760012 0.760377 
0.760377 0.760399 0.76037 0.759855 0.759447 0.759994 0.760381 0.76048 0.706407 
0.739765 0.756624 0.756215 0.759416 0.759925 0.760346 0.495311 0.573818 0.624693 
0.700103 0.667325 0.706314 0.739097 0.755723 0.759346 0.759878 0.450812 0.365809 
0.495287 0.573641 0.624267 0.66631 0.704668 0.737526 0.755093 0.36547 0.494931 
0.573127 0.623397 0.665031 0.703061 0.365093 0.759093 0.758834 0.759037 0.759647 
0.75915 0.759297 0.760052 0.760137 0.759332 0.759468 0.760412 0.760296 0.759486 
0.760734 0.7605 0.759646 0.761014 0.761102 0.760708 0.761017 0.761169 0.760919 
0.760834 0.760653 0.761266 0.761131 0.760616 0.760661 0.76134 0.760409 0.760211 
0.760652 0.76137 0.760168 0.76019 0.760602 0.759993 0.75994 0.760129 0.759877 
0.759954 0.759944 0.760038 0.759991 0.759982 0.759975 0.760317 0.760358 0.760234 
0.760398 0.760388 0.760451 0.760477 0.76046 0.760502 0.760399 0.760508 0.760399 
0.76033 0.760518 0.760467 0.759284 0.759886 0.759878 0.760288 0.760527 0.73645 
0.756639 0.754961 0.75923 0.759879 0.7603 0.494563 0.572688 0.622923 0.664669 
0.704896 0.70303 0.735888 0.754481 0.759027 0.759873 0.438034 0.365097 0.494545 
0.572589 0.622583 0.663979 0.701551 0.73444 0.753881 0.365257 0.494825 0.572581 
0.622206 0.663112 0.75798 0.75716 0.757431 0.759066 0.758765 0.757594 0.757278 
0.759528 0.759431 0.759479 0.757919 0.757373 0.759581 0.759672 0.758227 0.75755 
0.759698 0.759806 0.759905 0.758572 0.759824 0.759814 0.760172 0.758971 0.760401 
0.760047 0.760459 0.76102 0.76118 0.760275 0.760743 0.761329 0.761295 0.76049 
0.761383 0.761375 0.761431 0.761013 0.76054 0.761351 0.761537 0.760509 0.760532 
0.761249 0.760129 0.759975 0.760364 0.759934 0.760054 0.759951 0.760205 0.760077 
0.760068 0.759989 0.760442 0.76052 0.760308 0.760564 0.760536 0.760683 0.760562 
0.760508 0.760527 0.760629 0.760828 0.760556 0.760542 0.760645 0.760823 0.760411 
0.760324 0.760595 0.760825 0.758946 0.759912 0.759877 0.760371 0.76068 0.700341 
0.733603 0.755399 0.753782 0.758953 0.759919 0.760446 0.366974 0.496717 0.573558 
0.622626 0.684244 0.663189 0.700179 0.732926 0.753201 0.758954 0.367352 0.497515 
0.57435 0.623316 0.663625 0.700062 0.732321 0.387297 0.522702 0.589584 0.756946 
0.755651 0.752167 0.754446 0.758846 0.759882 0.758926 0.759546 0.757061 0.753105 
0.753901 0.75818 0.760347 0.759168 0.759628 0.757668 0.753646 0.753764 0.757825 
0.760279 0.758304 0.757707 0.759743 0.758254 0.75422 0.7537 0.757472 0.75788 
0.757806 0.759885 0.758879 0.754964 0.753777 0.758648 0.759253 0.758193 0.760064 
0.759548 0.755917 0.759625 0.759408 0.758604 0.760305 0.760244 0.76056 0.760851 
0.759854 0.759057 0.760605 0.760818 0.760705 0.760933 0.760288 0.759565 0.760711 
0.760706 0.761028 0.760686 0.761288 0.761549 0.760783 0.761132 0.761455 0.761062 
0.761535 0.760921 0.761052 0.761058 0.761497 0.760404 0.76016 0.76087 0.760072 
0.760082 0.760129 0.760694 0.760137 0.760116 0.76014 0.760538 0.760583 0.760335 