# vtk DataFile Version 5.1
vtk output
ASCII
DATASET STRUCTURED_GRID
DIMENSIONS 28 20 13
POINTS 7280 float
3.76637 0.65022 0.415865 3.76636 0.677157 0.415865 3.76635 0.704717 0.415865 
3.76634 0.732594 0.415865 3.76633 0.760471 0.415865 3.76632 0.78803 0.415865 
3.76631 0.814967 0.415865 3.7663 0.841005 0.415865 3.76629 0.865907 0.415865 
3.76629 0.889478 0.415865 3.76628 0.911575 0.415865 3.76627 0.932103 0.415865 
3.76627 0.951011 0.415865 3.76626 0.968295 0.415865 3.76626 0.983981 0.415865 
3.76625 0.998125 0.415865 3.76625 1.01081 0.415865 3.76624 1.02212 0.415865 
3.76624 1.03216 0.415865 3.76624 1.04103 0.415865 3.76623 1.04885 0.415865 
3.76623 1.05572 0.415865 3.76623 1.06173 0.415865 3.76623 1.06698 0.415865 
3.76623 1.07156 0.415865 3.76622 1.07554 0.415865 3.76622 1.079 0.415865 
3.76622 1.082 0.415865 3.80268 0.648824 0.415865 3.80267 0.675867 0.415865 
3.80266 0.703535 0.415865 3.80265 0.731524 0.415865 3.80264 0.759513 0.415865 
3.80263 0.787182 0.415865 3.80262 0.814225 0.415865 3.80261 0.840364 0.415865 
3.8026 0.865359 0.415865 3.80259 0.889016 0.415865 3.80259 0.91119 0.415865 
3.80258 0.931785 0.415865 3.80257 0.950754 0.415865 3.80257 0.968089 0.415865 
3.80256 0.983818 0.415865 3.80255 0.997999 0.415865 3.80255 1.01071 0.415865 
3.80254 1.02204 0.415865 3.80254 1.0321 0.415865 3.80254 1.041 0.415865 
3.80254 1.04883 0.415865 3.80253 1.0557 0.415865 3.80253 1.06172 0.415865 
3.80253 1.06698 0.415865 3.80253 1.07156 0.415865 3.80253 1.07554 0.415865 
3.80252 1.079 0.415865 3.80252 1.082 0.415865 3.83935 0.647413 0.415865 
3.83934 0.674563 0.415865 3.83933 0.702343 0.415865 3.83932 0.730445 0.415865 
3.83931 0.758547 0.415865 3.83929 0.786326 0.415865 3.83928 0.813476 0.415865 
3.83927 0.839716 0.415865 3.83926 0.864805 0.415865 3.83925 0.888549 0.415865 
3.83924 0.9108 0.415865 3.83924 0.931465 0.415865 3.83923 0.950494 0.415865 
3.83922 0.967881 0.415865 3.83922 0.983654 0.415865 3.83921 0.997872 0.415865 
3.8392 1.01061 0.415865 3.8392 1.02197 0.415865 3.8392 1.03205 0.415865 
3.83919 1.04096 0.415865 3.83919 1.0488 0.415865 3.83919 1.05568 0.415865 
3.83918 1.06171 0.415865 3.83918 1.06697 0.415865 3.83918 1.07155 0.415865 
3.83918 1.07554 0.415865 3.83918 1.079 0.415865 3.83917 1.082 0.415865 
3.87635 0.64599 0.415865 3.87634 0.673248 0.415865 3.87633 0.70114 0.415865 
3.87632 0.729355 0.415865 3.8763 0.757571 0.415865 3.87629 0.785463 0.415865 
3.87628 0.81272 0.415865 3.87627 0.839062 0.415865 3.87626 0.864247 0.415865 
3.87625 0.888077 0.415865 3.87624 0.910408 0.415865 3.87623 0.931142 0.415865 
3.87622 0.950232 0.415865 3.87621 0.967671 0.415865 3.87621 0.983489 0.415865 
3.8762 0.997744 0.415865 3.8762 1.01051 0.415865 3.87619 1.0219 0.415865 
3.87619 1.032 0.415865 3.87618 1.04092 0.415865 3.87618 1.04878 0.415865 
3.87618 1.05567 0.415865 3.87617 1.0617 0.415865 3.87617 1.06696 0.415865 
3.87617 1.07155 0.415865 3.87617 1.07554 0.415865 3.87617 1.079 0.415865 
3.87616 1.082 0.415865 3.91368 0.644555 0.415865 3.91366 0.671921 0.415865 
3.91365 0.699926 0.415865 3.91364 0.728256 0.415865 3.91362 0.756587 0.415865 
3.91361 0.784591 0.415865 3.9136 0.811958 0.415865 3.91359 0.838403 0.415865 
3.91358 0.863683 0.415865 3.91356 0.887602 0.415865 3.91355 0.910011 0.415865 
3.91355 0.930816 0.415865 3.91354 0.949967 0.415865 3.91353 0.967459 0.415865 
3.91352 0.983322 0.415865 3.91351 0.997614 0.415865 3.91351 1.01042 0.415865 
3.9135 1.02182 0.415865 3.9135 1.03194 0.415865 3.91349 1.04088 0.415865 
3.91349 1.04875 0.415865 3.91349 1.05565 0.415865 3.91349 1.06169 0.415865 
3.91348 1.06696 0.415865 3.91348 1.07155 0.415865 3.91348 1.07554 0.415865 
3.91348 1.079 0.415865 3.91348 1.082 0.415865 3.9513 0.643108 0.415865 
3.95129 0.670584 0.415865 3.95128 0.698702 0.415865 3.95126 0.727148 0.415865 
3.95125 0.755595 0.415865 3.95124 0.783713 0.415865 3.95122 0.811189 0.415865 
3.95121 0.837738 0.415865 3.9512 0.863116 0.415865 3.95119 0.887123 0.415865 
3.95118 0.909612 0.415865 3.95117 0.930488 0.415865 3.95116 0.9497 0.415865 
3.95115 0.967246 0.415865 3.95114 0.983153 0.415865 3.95113 0.997483 0.415865 
3.95113 1.01032 0.415865 3.95112 1.02175 0.415865 3.95112 1.03189 0.415865 
3.95111 1.04085 0.415865 3.95111 1.04872 0.415865 3.95111 1.05563 0.415865 
3.9511 1.06168 0.415865 3.9511 1.06695 0.415865 3.9511 1.07155 0.415865 
3.9511 1.07554 0.415865 3.9511 1.079 0.415865 3.9511 1.082 0.415865 
3.98922 0.64165 0.415865 3.98921 0.669237 0.415865 3.98919 0.697469 0.415865 
3.98918 0.726032 0.415865 3.98916 0.754595 0.415865 3.98915 0.782828 0.415865 
3.98914 0.810415 0.415865 3.98912 0.837069 0.415865 3.98911 0.862543 0.415865 
3.9891 0.88664 0.415865 3.98909 0.90921 0.415865 3.98908 0.930156 0.415865 
3.98907 0.949432 0.415865 3.98906 0.96703 0.415865 3.98905 0.982984 0.415865 
3.98904 0.997352 0.415865 3.98904 1.01022 0.415865 3.98903 1.02168 0.415865 
3.98903 1.03184 0.415865 3.98902 1.04081 0.415865 3.98902 1.0487 0.415865 
3.98902 1.05562 0.415865 3.98901 1.06167 0.415865 3.98901 1.06695 0.415865 
3.98901 1.07154 0.415865 3.98901 1.07554 0.415865 3.98901 1.079 0.415865 
3.989 1.082 0.415865 4.02741 0.640181 0.415865 4.02739 0.667879 0.415865 
4.02738 0.696227 0.415865 4.02736 0.724908 0.415865 4.02735 0.753589 0.415865 
4.02734 0.781937 0.415865 4.02732 0.809635 0.415865 4.02731 0.836394 0.415865 
4.0273 0.861967 0.415865 4.02728 0.886153 0.415865 4.02727 0.908804 0.415865 
4.02726 0.929823 0.415865 4.02725 0.949161 0.415865 4.02724 0.966814 0.415865 
4.02724 0.982813 0.415865 4.02723 0.997219 0.415865 4.02722 1.01012 0.415865 
4.02722 1.0216 0.415865 4.02721 1.03178 0.415865 4.02721 1.04077 0.415865 
4.0272 1.04867 0.415865 4.0272 1.0556 0.415865 4.0272 1.06166 0.415865 
4.02719 1.06694 0.415865 4.02719 1.07154 0.415865 4.02719 1.07553 0.415865 
4.02719 1.079 0.415865 4.02719 1.082 0.415865 4.06585 0.638703 0.415865 
4.06583 0.666513 0.415865 4.06582 0.694977 0.415865 4.0658 0.723776 0.415865 
4.06579 0.752575 0.415865 4.06578 0.78104 0.415865 4.06576 0.808849 0.415865 
4.06575 0.835715 0.415865 4.06573 0.861387 0.415865 4.06572 0.885664 0.415865 
4.06571 0.908396 0.415865 4.0657 0.929488 0.415865 4.06569 0.948889 0.415865 
4.06568 0.966596 0.415865 4.06567 0.982641 0.415865 4.06567 0.997086 0.415865 
4.06566 1.01001 0.415865 4.06565 1.02152 0.415865 4.06565 1.03173 0.415865 
4.06565 1.04073 0.415865 4.06564 1.04865 0.415865 4.06564 1.05558 0.415865 
4.06564 1.06165 0.415865 4.06563 1.06694 0.415865 4.06563 1.07154 0.415865 
4.06563 1.07553 0.415865 4.06563 1.079 0.415865 4.06562 1.082 0.415865 
4.10452 0.637216 0.415865 4.10451 0.665139 0.415865 4.1045 0.69372 0.415865 
4.10448 0.722638 0.415865 4.10447 0.751556 0.415865 4.10445 0.780137 0.415865 
4.10444 0.80806 0.415865 4.10442 0.835032 0.415865 4.10441 0.860803 0.415865 
4.1044 0.885171 0.415865 4.10439 0.907986 0.415865 4.10438 0.92915 0.415865 
4.10437 0.948615 0.415865 4.10436 0.966377 0.415865 4.10435 0.982468 0.415865 
4.10434 0.996952 0.415865 4.10434 1.00991 0.415865 4.10433 1.02145 0.415865 
4.10433 1.03167 0.415865 4.10432 1.04069 0.415865 4.10432 1.04862 0.415865 
4.10431 1.05557 0.415865 4.10431 1.06164 0.415865 4.10431 1.06693 0.415865 
4.10431 1.07154 0.415865 4.1043 1.07553 0.415865 4.1043 1.079 0.415865 
4.1043 1.082 0.415865 4.14342 0.63572 0.415865 4.1434 0.663757 0.415865 
4.14339 0.692455 0.415865 4.14338 0.721493 0.415865 4.14336 0.75053 0.415865 
4.14335 0.779229 0.415865 4.14333 0.807265 0.415865 4.14332 0.834345 0.415865 
4.14331 0.860217 0.415865 4.1433 0.884676 0.415865 4.14328 0.907573 0.415865 
4.14328 0.92881 0.415865 4.14326 0.948339 0.415865 4.14326 0.966156 0.415865 
4.14325 0.982294 0.415865 4.14324 0.996817 0.415865 4.14323 1.00981 0.415865 
4.14323 1.02137 0.415865 4.14322 1.03162 0.415865 4.14322 1.04065 0.415865 
4.14322 1.04859 0.415865 4.14321 1.05555 0.415865 4.14321 1.06163 0.415865 
4.14321 1.06693 0.415865 4.1432 1.07153 0.415865 4.1432 1.07553 0.415865 
4.1432 1.079 0.415865 4.1432 1.082 0.415865 4.18251 0.634218 0.415865 
4.1825 0.662368 0.415865 4.18248 0.691184 0.415865 4.18247 0.720342 0.415865 
4.18246 0.7495 0.415865 4.18244 0.778317 0.415865 4.18243 0.806467 0.415865 
4.18242 0.833655 0.415865 4.1824 0.859627 0.415865 4.18239 0.884179 0.415865 
4.18238 0.907159 0.415865 4.18237 0.928469 0.415865 4.18236 0.948062 0.415865 
4.18235 0.965934 0.415865 4.18235 0.98212 0.415865 4.18234 0.996682 0.415865 
4.18233 1.00971 0.415865 4.18233 1.02129 0.415865 4.18232 1.03156 0.415865 
4.18232 1.04061 0.415865 4.18231 1.04856 0.415865 4.18231 1.05553 0.415865 
4.18231 1.06162 0.415865 4.18231 1.06692 0.415865 4.1823 1.07153 0.415865 
4.1823 1.07553 0.415865 4.1823 1.079 0.415865 4.1823 1.082 0.415865 
4.22178 0.632708 0.415865 4.22177 0.660972 0.415865 4.22176 0.689907 0.415865 
4.22174 0.719186 0.415865 4.22173 0.748465 0.415865 4.22172 0.777401 0.415865 
4.2217 0.805665 0.415865 4.22169 0.832961 0.415865 4.22168 0.859034 0.415865 
4.22167 0.883678 0.415865 4.22166 0.906742 0.415865 4.22165 0.928127 0.415865 
4.22164 0.947784 0.415865 4.22163 0.965712 0.415865 4.22163 0.981944 0.415865 
4.22162 0.996545 0.415865 4.22161 1.0096 0.415865 4.22161 1.02122 0.415865 
4.2216 1.0315 0.415865 4.2216 1.04057 0.415865 4.2216 1.04854 0.415865 
4.22159 1.05551 0.415865 4.22159 1.06161 0.415865 4.22159 1.06691 0.415865 
4.22159 1.07153 0.415865 4.22158 1.07553 0.415865 4.22158 1.079 0.415865 
4.22158 1.082 0.415865 4.26121 0.631192 0.415865 4.2612 0.659571 0.415865 
4.26119 0.688626 0.415865 4.26118 0.718026 0.415865 4.26116 0.747426 0.415865 
4.26115 0.776481 0.415865 4.26114 0.80486 0.415865 4.26113 0.832265 0.415865 
4.26112 0.858439 0.415865 4.26111 0.883177 0.415865 4.2611 0.906324 0.415865 
4.26109 0.927782 0.415865 4.26108 0.947505 0.415865 4.26108 0.965488 0.415865 
4.26107 0.981768 0.415865 4.26106 0.996409 0.415865 4.26106 1.0095 0.415865 
4.26105 1.02114 0.415865 4.26105 1.03145 0.415865 4.26104 1.04053 0.415865 
4.26104 1.04851 0.415865 4.26104 1.0555 0.415865 4.26103 1.0616 0.415865 
[...]
POINT_DATA 7280
FIELD FieldData 5
pressure 1 7280 float
0.210329 0.209772 0.20843 0.208843 0.208826 0.208994 0.210197 0.212935 0.214991 
0.216785 0.220503 0.225487 0.233965 0.246026 0.258 0.270305 0.282162 0.293169 
0.301803 0.310196 0.315883 0.321677 0.324816 0.328339 0.330006 0.331724 0.333202 
0.334767 0.204846 0.204054 0.203383 0.204068 0.204422 0.2051 0.206828 0.210235 
0.213411 0.217524 0.221474 0.225798 0.233154 0.242858 0.255632 0.267422 0.279446 
0.288807 0.297749 0.303987 0.309669 0.31344 0.316911 0.318845 0.320801 0.321653 
0.321669 0.324603 0.199685 0.199074 0.198498 0.199372 0.200214 0.201588 0.203858 
0.207675 0.212185 0.217216 0.222086 0.227629 0.234417 0.243447 0.254209 0.267257 
0.278629 0.289887 0.300119 0.306829 0.313673 0.31698 0.320571 0.322179 0.324227 
0.324624 0.326396 0.326968 0.194718 0.19457 0.194327 0.19509 0.196642 0.199019 
0.201707 0.205634 0.210795 0.216596 0.22286 0.229512 0.236866 0.245559 0.256715 
0.268666 0.280813 0.292341 0.301429 0.30995 0.315586 0.32021 0.323369 0.325387 
0.327035 0.328032 0.328068 0.330939 0.190392 0.190592 0.190493 0.191579 0.193581 
0.196884 0.2004 0.204325 0.20959 0.216268 0.223785 0.231672 0.240291 0.250186 
0.260852 0.27142 0.282409 0.291218 0.299943 0.306288 0.312591 0.317545 0.321083 
0.324175 0.326027 0.327516 0.32878 0.330274 0.186164 0.186714 0.187059 0.188572 
0.191191 0.195141 0.19968 0.204113 0.209279 0.216133 0.22479 0.234709 0.24518 
0.255961 0.265321 0.274942 0.283125 0.291624 0.297372 0.303735 0.307961 0.311679 
0.314598 0.316475 0.318256 0.319258 0.3199 0.321443 0.182297 0.183078 0.184119 
0.186272 0.189333 0.193819 0.199115 0.20419 0.209456 0.216344 0.225947 0.237507 
0.249682 0.260042 0.269421 0.277613 0.285904 0.290993 0.296438 0.298945 0.30148 
0.302771 0.302884 0.303745 0.303975 0.304561 0.305247 0.305643 0.178548 0.179815 
0.181681 0.184563 0.188032 0.192546 0.198031 0.20368 0.209821 0.217859 0.227755 
0.239934 0.251731 0.262708 0.272691 0.282261 0.287018 0.291503 0.292008 0.292708 
0.292251 0.290733 0.290647 0.289902 0.290088 0.290285 0.290248 0.290951 0.175277 
0.177002 0.179754 0.183174 0.186817 0.191162 0.196575 0.202779 0.211026 0.220592 
0.231177 0.242015 0.253599 0.265639 0.277305 0.283329 0.28715 0.28696 0.286212 
0.2848 0.282308 0.281647 0.280213 0.280104 0.279773 0.279515 0.279544 0.279714 
0.172262 0.174623 0.177917 0.181825 0.185546 0.189847 0.195405 0.202748 0.212974 
0.224342 0.23493 0.245727 0.257164 0.269794 0.277646 0.281606 0.281779 0.280397 
0.278812 0.276178 0.275332 0.273631 0.273555 0.272852 0.272674 0.272662 0.272687 
0.273074 0.16975 0.172481 0.176091 0.180142 0.184271 0.188884 0.195053 0.203734 
0.215238 0.227273 0.239317 0.25148 0.263946 0.271577 0.274775 0.27449 0.273545 
0.272411 0.270254 0.269645 0.268214 0.268174 0.267547 0.2673 0.26733 0.267161 
0.267248 0.26741 0.167302 0.170441 0.17415 0.178422 0.183069 0.188539 0.195581 
0.205224 0.217073 0.23002 0.244268 0.259064 0.268103 0.270127 0.267977 0.266411 
0.265262 0.26346 0.263138 0.262005 0.262169 0.26155 0.261502 0.261603 0.261356 
0.261686 0.261682 0.262021 0.165127 0.1686 0.17236 0.176868 0.18219 0.188614 
0.196719 0.206886 0.21914 0.233645 0.250423 0.263259 0.267268 0.264474 0.261566 
0.259481 0.257418 0.25666 0.255493 0.255654 0.254989 0.25504 0.255089 0.25488 
0.255209 0.255111 0.255224 0.255365 0.163037 0.167028 0.170925 0.175681 0.181565 
0.18908 0.198179 0.209245 0.222709 0.239505 0.254961 0.262103 0.261118 0.258297 
0.255618 0.25304 0.251565 0.249781 0.249331 0.248313 0.248196 0.247969 0.247707 
0.247915 0.2477 0.248011 0.247909 0.24815 0.16128 0.165837 0.169814 0.174705 
0.181265 0.189665 0.200172 0.212933 0.229089 0.245222 0.255049 0.255712 0.253799 
0.251889 0.249582 0.248001 0.245695 0.244531 0.24286 0.242223 0.241449 0.240917 
0.240868 0.240493 0.240629 0.240515 0.240503 0.240668 0.159709 0.164782 0.168806 
0.174173 0.181383 0.190935 0.203227 0.219225 0.235933 0.247724 0.249745 0.248079 
0.246433 0.245089 0.244286 0.242153 0.240817 0.23867 0.237609 0.23628 0.235384 
0.2349 0.234279 0.234204 0.233852 0.234 0.233768 0.234051 0.158366 0.163759 
0.167961 0.173891 0.182111 0.193022 0.208056 0.225587 0.240224 0.24444 0.243446 
0.241015 0.239516 0.239259 0.237911 0.237016 0.234849 0.233581 0.231816 0.230756 
0.229888 0.229034 0.228727 0.228198 0.228145 0.227958 0.227887 0.228097 0.156665 
0.162699 0.167497 0.174428 0.183912 0.197145 0.214135 0.230762 0.238094 0.238694 
0.236073 0.234008 0.233274 0.232181 0.231796 0.230206 0.229353 0.227736 0.226755 
0.225765 0.224906 0.22449 0.223893 0.223803 0.223457 0.223585 0.223353 0.223762 
0.155076 0.161979 0.167457 0.175657 0.186929 0.202036 0.219529 0.230827 0.233842 
0.231899 0.229669 0.228205 0.226824 0.226285 0.224877 0.224176 0.222807 0.222096 
0.221197 0.220512 0.220049 0.21952 0.219452 0.219177 0.219271 0.219164 0.219229 
0.219524 0.153765 0.162564 0.169087 0.17983 0.194136 0.209965 0.221826 0.227617 
0.227782 0.225869 0.22403 0.22216 0.220983 0.218943 0.217485 0.216115 0.215988 
0.215565 0.215578 0.215715 0.216033 0.216517 0.216685 0.217112 0.217143 0.217489 
0.217435 0.217902 0.210152 0.209987 0.208461 0.208641 0.20824 0.208087 0.209365 
0.212482 0.215332 0.218834 0.223561 0.229467 0.239109 0.250573 0.262648 0.273434 
0.283383 0.291443 0.298007 0.303853 0.307995 0.311953 0.314388 0.316983 0.318304 
0.319847 0.320198 0.323404 0.204689 0.204004 0.202962 0.203539 0.203645 0.204452 
0.206668 0.210356 0.213716 0.216986 0.220678 0.224291 0.231745 0.241766 0.253888 
0.264643 0.275277 0.282559 0.289569 0.294739 0.299901 0.303301 0.30697 0.309028 
0.311505 0.312564 0.314478 0.31603 0.199372 0.199263 0.198501 0.199284 0.200136 
0.201478 0.204242 0.208645 0.213524 0.218405 0.222846 0.227846 0.234241 0.243686 
0.254287 0.267104 0.277875 0.289151 0.296629 0.304481 0.308563 0.313508 0.315481 
0.318441 0.319389 0.321099 0.321372 0.32366 0.194659 0.19465 0.194171 0.195141 
0.196809 0.199237 0.202258 0.20701 0.212867 0.219067 0.225449 0.231602 0.238592 
0.246802 0.257362 0.268037 0.279827 0.289635 0.299673 0.306268 0.312579 0.315869 
0.319144 0.320677 0.322516 0.323049 0.324529 0.325404 0.190154 0.190334 0.190097 
0.191322 0.193799 0.197343 0.201176 0.205802 0.212102 0.219594 0.227544 0.235285 
0.243511 0.252356 0.261385 0.271004 0.279909 0.289154 0.296179 0.30353 0.308643 
0.313904 0.316999 0.320035 0.32173 0.323553 0.324174 0.326703 0.186104 0.186348 
0.186567 0.188182 0.19126 0.195831 0.200614 0.205971 0.211924 0.219929 0.228732 
0.238611 0.248637 0.257969 0.265892 0.273888 0.281766 0.288302 0.295168 0.299893 
0.304951 0.30815 0.311663 0.313598 0.316058 0.316905 0.318663 0.319553 0.182009 
0.182613 0.183641 0.185854 0.18957 0.19453 0.200594 0.206423 0.212672 0.220017 
0.229836 0.241034 0.252359 0.261057 0.269557 0.277225 0.283271 0.289406 0.29278 
0.296732 0.298325 0.300405 0.30126 0.302933 0.303458 0.304906 0.305101 0.30718 
0.178296 0.179331 0.181333 0.184427 0.188266 0.193766 0.199975 0.206741 0.213351 
0.221533 0.231019 0.242216 0.252515 0.262991 0.27235 0.28008 0.286345 0.287858 
0.290226 0.29019 0.290165 0.289438 0.289977 0.289616 0.290775 0.290429 0.291336 
0.291927 0.174835 0.176576 0.179465 0.183353 0.187611 0.192719 0.199314 0.206143 
0.214993 0.224186 0.233404 0.242813 0.253211 0.264312 0.27491 0.282138 0.283504 
0.284773 0.28382 0.282544 0.280763 0.280655 0.2798 0.280181 0.279807 0.280549 
0.280497 0.281321 0.172035 0.174344 0.177835 0.182289 0.186753 0.192042 0.198333 
0.206746 0.216839 0.22733 0.236214 0.244997 0.255462 0.266461 0.274972 0.277601 
0.278359 0.277382 0.276282 0.274223 0.274064 0.272934 0.27316 0.27257 0.273177 
0.272869 0.273099 0.273344 0.169505 0.172426 0.176247 0.180951 0.185976 0.191471 
0.198604 0.20764 0.218683 0.22919 0.239141 0.249763 0.260038 0.267668 0.269498 
0.270367 0.269831 0.269294 0.267779 0.268146 0.267309 0.26775 0.267432 0.267844 
0.267545 0.267954 0.267752 0.267815 0.167402 0.170655 0.174673 0.17972 0.185195 
0.191639 0.199304 0.209032 0.21961 0.230805 0.242884 0.255656 0.263711 0.264069 
0.263454 0.262174 0.261726 0.26068 0.261266 0.260933 0.261692 0.261674 0.262159 
0.261958 0.262447 0.2623 0.262148 0.262233 0.165255 0.169074 0.173376 0.178655 
0.184797 0.191999 0.200533 0.210098 0.220839 0.233293 0.247633 0.259203 0.261398 
0.259958 0.257239 0.255736 0.254338 0.254462 0.254331 0.255099 0.255288 0.25591 
0.255803 0.256314 0.256119 0.256395 0.256164 0.256082 0.163353 0.167879 0.172384 
0.177946 0.184502 0.192615 0.201675 0.211602 0.223277 0.237461 0.251234 0.256776 
0.256645 0.254024 0.251992 0.250018 0.24949 0.248563 0.248804 0.248682 0.249008 
0.248894 0.249238 0.24902 0.249182 0.249145 0.248798 0.248895 0.161588 0.166965 
0.171712 0.177337 0.184544 0.193049 0.202944 0.214332 0.227793 0.242181 0.25009 
0.25114 0.249618 0.248366 0.246765 0.245826 0.244464 0.244066 0.243255 0.243049 
0.242561 0.242524 0.242084 0.242072 0.241789 0.241744 0.241474 0.2413 0.160184 
0.166352 0.171008 0.177111 0.184642 0.194059 0.205283 0.219086 0.233988 0.243363 
0.245443 0.243727 0.242702 0.242109 0.241838 0.240772 0.240164 0.238993 0.238313 
0.237438 0.236936 0.23621 0.235828 0.235389 0.235014 0.234973 0.234392 0.234469 
0.158888 0.165532 0.170497 0.176897 0.185234 0.19551 0.208889 0.224771 0.236761 
0.240827 0.23913 0.237159 0.236269 0.236573 0.236311 0.236045 0.234875 0.234049 
0.232883 0.232155 0.23116 0.23054 0.22991 0.229412 0.229139 0.228699 0.228486 
0.228275 0.157294 0.164816 0.170144 0.177425 0.186522 0.198759 0.214467 0.228417 
0.235309 0.234536 0.232345 0.230544 0.230283 0.230303 0.230547 0.2298 0.229434 
0.228442 0.227856 0.226935 0.226325 0.225666 0.225103 0.224901 0.224395 0.224451 
0.223905 0.223998 0.155709 0.164106 0.170219 0.178313 0.18886 0.203087 0.218639 
0.228737 0.230232 0.228551 0.226358 0.225255 0.224722 0.224781 0.224135 0.223989 
0.223273 0.222871 0.222201 0.221795 0.221266 0.220846 0.220597 0.220225 0.220223 
0.219887 0.219767 0.219669 0.154448 0.164761 0.171478 0.182045 0.195346 0.210139 
0.220145 0.22469 0.224188 0.222388 0.221106 0.22004 0.219347 0.218069 0.217515 
0.216797 0.216908 0.216755 0.216915 0.21703 0.21741 0.217664 0.217746 0.217971 
0.217763 0.21791 0.217567 0.217681 0.210129 0.209769 0.208181 0.208383 0.20797 
0.207946 0.209038 0.212301 0.215547 0.21946 0.225058 0.231834 0.241811 0.254433 
0.265348 0.27703 0.285303 0.292646 0.29817 0.302338 0.306449 0.309114 0.311937 
0.313581 0.315473 0.316356 0.317874 0.319576 0.2044 0.203452 0.20234 0.202887 
0.203123 0.20402 0.206409 0.20999 0.213406 0.216874 0.221342 0.225997 0.233945 
0.244243 0.255659 0.266074 0.27405 0.279851 0.284865 0.288521 0.292789 0.29564 
0.29885 0.30082 0.303001 0.304029 0.305798 0.307122 0.199235 0.198938 0.198199 
0.198902 0.199694 0.20125 0.204257 0.208894 0.21372 0.218638 0.223685 0.229471 
0.236691 0.246317 0.257217 0.268743 0.278258 0.287378 0.29413 0.300231 0.304084 
0.307612 0.309592 0.311546 0.312571 0.313541 0.314239 0.315536 0.194393 0.194692 
0.194261 0.19515 0.196592 0.199191 0.202643 0.207671 0.213787 0.22018 0.227114 
0.233785 0.241327 0.249874 0.260238 0.270292 0.281133 0.290504 0.299006 0.30501 
0.309889 0.312632 0.315035 0.316094 0.317405 0.317871 0.318802 0.320169 0.190186 
0.190543 0.190302 0.191487 0.193685 0.19751 0.201474 0.206848 0.213428 0.221646 
0.229712 0.238084 0.246175 0.255535 0.263668 0.273043 0.28108 0.289337 0.295683 
0.301916 0.306569 0.310912 0.313832 0.316341 0.318127 0.319378 0.320672 0.32198 
0.185953 0.186393 0.186698 0.188242 0.191346 0.196032 0.20131 0.20675 0.213838 
0.222041 0.231914 0.241473 0.252173 0.260312 0.268679 0.275221 0.282443 0.288112 
0.293796 0.298477 0.30285 0.306358 0.309325 0.311854 0.313524 0.315374 0.316028 
0.318238 0.181969 0.18254 0.183574 0.185991 0.189635 0.195324 0.201356 0.208202 
0.214327 0.223049 0.232584 0.24491 0.254769 0.264558 0.270979 0.278463 0.283582 
0.288503 0.292087 0.294918 0.297252 0.298777 0.300388 0.301233 0.302912 0.303126 
0.30441 0.305146 0.177989 0.179035 0.181202 0.184456 0.188921 0.194544 0.201754 
0.208243 0.216275 0.224192 0.234628 0.244785 0.255779 0.264064 0.273708 0.28026 
0.285193 0.287764 0.288789 0.28922 0.288697 0.288845 0.288344 0.289126 0.288889 
0.290073 0.290043 0.291461 0.174599 0.176365 0.179337 0.183687 0.188153 0.194324 
0.200811 0.209051 0.217268 0.227385 0.235934 0.245403 0.254137 0.265775 0.275076 
0.280721 0.283309 0.283498 0.282249 0.280623 0.27987 0.278634 0.278922 0.27822 
0.279154 0.278868 0.279308 0.27985 0.171614 0.174118 0.178013 0.18268 0.187976 
0.193297 0.200846 0.208724 0.21977 0.229209 0.238234 0.246107 0.256025 0.266383 
0.273375 0.276691 0.277059 0.275536 0.274004 0.273113 0.271769 0.272047 0.271259 
0.271834 0.271614 0.272044 0.271998 0.272341 0.169355 0.172496 0.176561 0.181899 
0.187042 0.193579 0.200357 0.210508 0.220522 0.231218 0.239548 0.249337 0.259027 
0.264957 0.267765 0.268155 0.267641 0.267209 0.267003 0.266176 0.266718 0.266115 
0.26668 0.266428 0.266753 0.266653 0.266585 0.266857 0.167231 0.17087 0.175432 
0.180629 0.18699 0.193358 0.20211 0.21109 0.221962 0.231367 0.242782 0.254138 
0.260631 0.261675 0.260321 0.259759 0.259761 0.259662 0.259691 0.260599 0.260556 
0.261281 0.261208 0.261604 0.26157 0.261817 0.261763 0.261734 0.165424 0.169683 
0.17419 0.18012 0.186286 0.194594 0.202758 0.212716 0.221985 0.233686 0.246842 
0.256469 0.258633 0.256365 0.254699 0.253691 0.253175 0.253314 0.253916 0.254223 
0.255066 0.255206 0.255727 0.255727 0.255988 0.255994 0.255781 0.25593 0.163536 
0.168585 0.173687 0.179268 0.18676 0.194561 0.204274 0.213144 0.224295 0.237298 
0.249585 0.254125 0.253442 0.251997 0.250113 0.248977 0.248293 0.248178 0.248071 
0.248497 0.248515 0.248894 0.248825 0.249076 0.248907 0.249077 0.248845 0.248755 
0.161989 0.168129 0.172913 0.17931 0.186246 0.195509 0.204243 0.215459 0.228015 
0.241241 0.247986 0.248562 0.248059 0.246893 0.246128 0.244792 0.244161 0.24344 
0.243247 0.242718 0.242591 0.242254 0.242182 0.24191 0.241831 0.241782 0.241391 
0.241472 0.160542 0.167394 0.172691 0.178673 0.186929 0.195217 0.206662 0.219243 
0.233373 0.241718 0.24306 0.242423 0.241625 0.241784 0.241071 0.240556 0.239557 
0.238993 0.238103 0.237537 0.236803 0.236313 0.235844 0.235511 0.23522 0.234996 
0.234715 0.234535 0.159431 0.167107 0.171922 0.178931 0.186351 0.197028 0.209463 
0.224634 0.235515 0.238761 0.237906 0.236273 0.236067 0.235863 0.236171 0.235468 
0.234906 0.233758 0.233015 0.231974 0.231252 0.230563 0.230025 0.229724 0.229233 
0.229221 0.228624 0.228682 0.157889 0.16615 0.171973 0.178765 0.188194 0.199468 
0.214611 0.227751 0.233508 0.2332 0.231327 0.230194 0.229721 0.230177 0.229772 
0.229756 0.229022 0.228581 0.227647 0.227023 0.226282 0.225789 0.225385 0.224932 
0.224783 0.224355 0.224156 0.224021 0.156385 0.165841 0.171382 0.179733 0.189867 
0.203548 0.218264 0.227244 0.228841 0.227204 0.225631 0.224626 0.224416 0.224041 
0.224023 0.223424 0.223358 0.222734 0.222484 0.221944 0.221661 0.22136 0.221024 
0.221015 0.220619 0.220692 0.220252 0.220364 0.155003 0.165866 0.172857 0.182618 
0.195927 0.209471 0.21896 0.223103 0.222964 0.221701 0.220587 0.219788 0.218802 
0.218048 0.217014 0.216933 0.216581 0.216777 0.216634 0.216824 0.216965 0.217229 
0.217433 0.217373 0.217481 0.217264 0.217175 0.217116 0.209801 0.209444 0.208001 
0.208007 0.207844 0.207783 0.208802 0.211866 0.215545 0.220481 0.226896 0.234309 
0.245946 0.25751 0.270415 0.279868 0.289013 0.294739 0.299209 0.303097 0.305626 
0.308718 0.31032 0.312482 0.313514 0.314876 0.315527 0.318136 0.204158 0.203015 
0.201894 0.202239 0.202598 0.203717 0.206001 0.209563 0.213126 0.217285 0.222031 
0.227826 0.236501 0.24735 0.258725 0.267731 0.274796 0.278855 0.282587 0.285965 
0.289044 0.292125 0.294542 0.296726 0.298418 0.299672 0.300967 0.302733 0.198788 
0.198443 0.197716 0.19822 0.199073 0.200895 0.204238 0.208899 0.21385 0.218802 
0.224409 0.230991 0.239283 0.249018 0.259871 0.269511 0.278117 0.285112 0.290921 
0.29535 0.298717 0.301078 0.303035 0.304146 0.305387 0.305944 0.306746 0.307965 
0.194215 0.194565 0.194141 0.194902 0.196325 0.198986 0.202871 0.208295 0.214469 
0.221415 0.22871 0.236313 0.243578 0.252838 0.261838 0.271722 0.280739 0.289524 
0.296417 0.301816 0.305243 0.307759 0.309087 0.310283 0.310891 0.311434 0.312044 
0.313038 0.189927 0.190638 0.19049 0.191623 0.193851 0.197578 0.202054 0.20764 
0.215157 0.223566 0.232643 0.240457 0.249265 0.257226 0.265762 0.273568 0.281857 
0.288456 0.294545 0.299501 0.30395 0.307235 0.310027 0.311769 0.313372 0.314389 
0.31541 0.316904 0.18597 0.186636 0.186864 0.188595 0.191647 0.196606 0.201751 
0.208197 0.215457 0.225056 0.234235 0.244966 0.254197 0.263115 0.269126 0.276643 
0.282181 0.287647 0.292396 0.29695 0.30089 0.304294 0.307152 0.309253 0.311292 
0.312453 0.313939 0.314963 0.181833 0.182545 0.183688 0.186125 0.190315 0.195836 
0.202589 0.209223 0.217035 0.225219 0.236375 0.247076 0.257988 0.264738 0.273196 
0.27846 0.283694 0.287837 0.291197 0.294159 0.296326 0.298407 0.299566 0.301315 
0.301993 0.303658 0.303842 0.305703 0.177939 0.179031 0.181074 0.184751 0.189247 
0.195845 0.202716 0.210851 0.218053 0.227558 0.237081 0.248047 0.256419 0.266688 
0.273812 0.280901 0.285146 0.287146 0.288596 0.288817 0.288802 0.288185 0.288609 
0.288121 0.289473 0.289032 0.290025 0.29058 0.174312 0.176097 0.179341 0.183694 
0.189167 0.195196 0.203264 0.210766 0.220688 0.229738 0.238824 0.24672 0.256382 
0.265532 0.27553 0.280956 0.282705 0.283078 0.281899 0.280405 0.278704 0.278574 
0.277404 0.27821 0.277606 0.27856 0.278429 0.279167 0.171445 0.174091 0.177931 
0.18327 0.188551 0.195439 0.202385 0.212212 0.221852 0.232284 0.23926 0.247667 
0.256357 0.266333 0.273269 0.276112 0.275853 0.274846 0.273232 0.271458 0.271151 
0.269867 0.270507 0.269754 0.270478 0.270101 0.270254 0.270611 0.168997 0.172385 
0.177043 0.182373 0.188731 0.194836 0.203436 0.212387 0.223497 0.231908 0.240819 
0.249309 0.258321 0.264531 0.266187 0.266489 0.266582 0.265902 0.265137 0.265299 
0.264531 0.26526 0.264683 0.265323 0.265004 0.265274 0.265245 0.265287 0.167149 
0.171195 0.175914 0.182041 0.188041 0.19596 0.203893 0.214005 0.22297 0.232878 
0.242485 0.253301 0.259095 0.259095 0.25834 0.258167 0.257801 0.258105 0.25876 
0.259004 0.259919 0.25992 0.260575 0.260408 0.260747 0.26072 0.260563 0.260762 
0.165366 0.170072 0.175379 0.181133 0.188557 0.19608 0.205616 0.214026 0.223812 
0.233863 0.246309 0.254678 0.255553 0.253936 0.252369 0.251649 0.251811 0.25205 
0.252726 0.253719 0.254196 0.254978 0.255053 0.255506 0.255463 0.255587 0.255488 
0.255336 0.163775 0.169599 0.174706 0.181218 0.188091 0.197256 0.205576 0.215316 
0.224891 0.237329 0.248219 0.251434 0.250956 0.24933 0.248107 0.24746 0.247226 
0.247309 0.247664 0.247859 0.248355 0.248396 0.248825 0.248711 0.248829 0.24886 
0.248528 0.248645 0.162299 0.169031 0.174631 0.180626 0.188762 0.196717 0.206769 
0.216407 0.228676 0.240415 0.245916 0.246323 0.245853 0.245612 0.244665 0.243974 
0.243432 0.243174 0.242729 0.242588 0.242196 0.242221 0.241868 0.24186 0.241638 
0.241535 0.241267 0.241137 0.161128 0.168899 0.17389 0.180847 0.188122 0.197832 
0.207524 0.22024 0.232742 0.240082 0.241161 0.240755 0.240853 0.240907 0.24085 
0.239971 0.239425 0.238553 0.238023 0.237151 0.236672 0.236082 0.235687 0.235394 
0.234977 0.234955 0.234421 0.234492 0.15998 0.168151 0.17379 0.180172 0.188825 
0.197771 0.210438 0.223975 0.234487 0.236994 0.236422 0.23575 0.235598 0.236032 
0.235751 0.235533 0.234438 0.233695 0.232589 0.231856 0.230989 0.230372 0.229904 
0.229371 0.229163 0.228745 0.228484 0.228404 0.158591 0.167884 0.173196 0.180839 
0.188957 0.200769 0.214447 0.227209 0.232066 0.231905 0.230636 0.229772 0.229793 
0.229651 0.229891 0.229182 0.229009 0.228108 0.227612 0.226772 0.226239 0.225727 
0.225213 0.225061 0.224549 0.224591 0.224087 0.224191 0.156971 0.166847 0.173253 
0.180813 0.19079 0.203949 0.218372 0.226287 0.227398 0.226126 0.22504 0.224351 
0.223918 0.223917 0.223347 0.223467 0.222899 0.222845 0.222319 0.222096 0.221797 