# vtk DataFile Version 5.1
vtk output
ASCII
DATASET POLYDATA
POINTS 748 float
1.80988 1.12141 -0.581291 1.80859 1.12253 -0.581123 1.81747 1.12391 -0.59138 
1.8156 1.1233 -0.588899 1.81747 1.12541 -0.59288 1.81434 1.12439 -0.588734 
1.81747 1.12821 -0.59568 1.81196 1.12646 -0.588423 1.81747 1.12971 -0.597175 
1.81747 1.13342 -0.60089 1.81431 1.13246 -0.596765 1.81747 1.13916 -0.606626 
1.81747 1.14298 -0.61045 1.81414 1.14206 -0.606198 1.81747 1.15031 -0.617779 
1.81747 1.16026 -0.62773 1.8085 1.15814 -0.616642 1.81747 1.1635 -0.630969 
1.81747 1.17913 -0.646595 1.81747 1.19046 -0.65793 1.81747 1.19765 -0.665124 
1.81747 1.21965 -0.687115 1.81747 1.24033 -0.7078 1.81747 1.24576 -0.713228 
1.81747 1.27678 -0.744248 1.81747 1.31364 -0.781109 1.81747 1.31549 -0.78296 
1.81558 1.31536 -0.780934 1.81747 1.35745 -0.824918 1.81747 1.40952 -0.876993 
1.81747 1.41446 -0.88193 1.81268 1.41399 -0.876673 1.81747 1.47143 -0.938899 
1.81747 1.52391 -0.99138 1.81747 1.54503 -1.0125 1.81747 1.62391 -1.09138 
1.79697 1.11718 -0.564149 1.8007 1.1184 -0.569096 1.79938 1.11954 -0.568922 
1.79691 1.12169 -0.568595 1.80804 1.12081 -0.57885 1.80496 1.1198 -0.574754 
1.80804 1.12235 -0.58039 1.80366 1.12093 -0.574582 1.80121 1.12305 -0.574259 
1.79657 1.12707 -0.573649 1.80804 1.12301 -0.58105 1.80804 1.12522 -0.58326 
1.80618 1.12463 -0.580805 1.8016 1.1286 -0.580204 1.80804 1.12987 -0.587911 
1.80804 1.13056 -0.588599 1.80745 1.13038 -0.587834 1.7989 1.13781 -0.586718 
1.80804 1.13791 -0.595952 1.80804 1.14036 -0.5984 1.80591 1.13977 -0.595676 
1.80804 1.14737 -0.605414 1.80803 1.15803 -0.61606 1.79843 1.15575 -0.60418 
1.80803 1.15855 -0.616582 1.80803 1.17176 -0.629793 1.80803 1.18741 -0.645443 
1.80803 1.18878 -0.64681 1.80673 1.18855 -0.645285 1.80803 1.20598 -0.664006 
1.80803 1.22801 -0.686038 1.80803 1.23928 -0.697306 1.79672 1.23803 -0.684747 
1.80802 1.25418 -0.712204 1.80802 1.28527 -0.743291 1.80801 1.31482 -0.772832 
1.80801 1.32223 -0.780236 1.80801 1.36614 -0.824152 1.808 1.41353 -0.871531 
1.808 1.41836 -0.876359 1.80799 1.48044 -0.938432 1.80798 1.52205 -0.980034 
1.80798 1.55426 -1.01224 1.80797 1.62079 -1.07876 1.78287 1.11254 -0.54541 
1.78538 1.11336 -0.548743 1.78402 1.11454 -0.548562 1.78796 1.11421 -0.552176 
1.78661 1.11538 -0.551997 1.78405 1.11761 -0.551657 1.7907 1.11511 -0.555815 
1.78936 1.11628 -0.555637 1.78681 1.11849 -0.555299 1.79656 1.11704 -0.5636 
1.79367 1.11609 -0.559765 1.79234 1.11725 -0.559589 1.78981 1.11944 -0.559253 
1.78504 1.12358 -0.55862 1.79656 1.11753 -0.564094 1.79656 1.11862 -0.56518 
1.79565 1.11832 -0.563973 1.79656 1.12158 -0.56814 1.79314 1.1205 -0.563642 
1.78841 1.12461 -0.563015 1.79656 1.12199 -0.568549 1.79656 1.12707 -0.57363 
1.79222 1.12575 -0.567976 1.78332 1.13348 -0.5668 1.79656 1.12709 -0.573647 
1.78777 1.13472 -0.572489 1.79656 1.13298 -0.579542 1.79656 1.13716 -0.58372 
1.79292 1.13615 -0.579064 1.79656 1.13985 -0.586412 1.79655 1.14791 -0.594463 
1.79655 1.15531 -0.60186 1.78987 1.15373 -0.593597 1.79655 1.15739 -0.603939 
1.79655 1.16858 -0.615126 1.79654 1.18182 -0.62836 1.79654 1.18675 -0.63329 
1.79186 1.18592 -0.627776 1.79654 1.1975 -0.644042 1.79654 1.2161 -0.662643 
1.79653 1.23801 -0.68454 1.79653 1.2382 -0.684726 1.79652 1.26444 -0.710957 
1.79651 1.29562 -0.742126 1.7965 1.314 -0.760505 1.7965 1.33267 -0.779174 
1.79649 1.37673 -0.823218 1.79648 1.41241 -0.858893 1.79648 1.42911 -0.875588 
1.79646 1.4914 -0.937863 1.79645 1.51979 -0.966242 1.79644 1.56548 -1.01192 
1.79643 1.61699 -1.06342 1.78278 1.11262 -0.545398 1.78278 1.11414 -0.54692 
1.7815 1.11373 -0.545229 1.7789 1.11598 -0.544884 1.774 1.12024 -0.544233 
1.78278 1.11562 -0.548398 1.78278 1.11721 -0.54999 1.78144 1.11678 -0.54822 
1.77656 1.12101 -0.547573 1.76732 1.12903 -0.546348 1.78278 1.11871 -0.551489 
1.7792 1.12181 -0.551014 1.77002 1.12978 -0.549797 1.78278 1.12198 -0.554764 
1.78278 1.1229 -0.55568 1.782 1.12266 -0.55466 1.77288 1.13058 -0.553451 
1.78278 1.12554 -0.558321 1.77598 1.13144 -0.55742 1.78278 1.12949 -0.56227 
1.78277 1.13333 -0.566101 1.77943 1.1324 -0.561826 1.78277 1.13396 -0.566728 
1.78277 1.13906 -0.57183 1.77103 1.14926 -0.570283 1.78277 1.14496 -0.577732 
1.77637 1.15052 -0.576891 1.78277 1.15184 -0.584611 1.78277 1.15204 -0.58481 
1.78259 1.152 -0.584588 1.78276 1.15991 -0.592675 1.78276 1.16941 -0.602168 
1.76856 1.18178 -0.600343 1.78276 1.18062 -0.613376 1.78276 1.1843 -0.617057 
1.77925 1.18368 -0.612931 1.78275 1.19389 -0.626639 1.78275 1.20961 -0.642358 
1.78274 1.22827 -0.661007 1.78274 1.23648 -0.669216 1.77447 1.23556 -0.660026 
1.78273 1.25042 -0.683151 1.78272 1.27674 -0.709459 1.78271 1.30802 -0.740726 
1.78271 1.31302 -0.745727 1.77755 1.31265 -0.740203 1.78269 1.34521 -0.777897 
1.78267 1.38943 -0.822097 1.78266 1.41106 -0.843722 1.78265 1.44201 -0.874662 
1.78263 1.50455 -0.93718 1.78262 1.51708 -0.949703 1.7717 1.51494 -0.936641 
1.7826 1.57894 -1.01154 1.78258 1.61245 -1.04503 1.7665 1.12674 -0.543238 
1.76649 1.1288 -0.545293 1.7647 1.1283 -0.542999 1.76649 1.12975 -0.546238 
1.7498 1.14423 -0.544023 1.76649 1.13284 -0.549329 1.7526 1.14489 -0.547485 
1.76649 1.13611 -0.552604 1.75556 1.14559 -0.551155 1.76649 1.13967 -0.556163 
1.75879 1.14636 -0.555142 1.76649 1.14362 -0.560114 1.76236 1.1472 -0.559568 
1.76649 1.14809 -0.564575 1.76649 1.14818 -0.56467 1.7664 1.14816 -0.564564 
1.76648 1.1532 -0.569684 1.76648 1.15911 -0.575593 1.76648 1.166 -0.582483 
1.75176 1.17881 -0.580561 1.76647 1.17409 -0.590562 1.76647 1.18141 -0.59788 
1.75948 1.18017 -0.589656 1.76647 1.1836 -0.600074 1.76646 1.19485 -0.611309 
1.76646 1.20815 -0.624606 1.76645 1.22392 -0.640369 1.76644 1.23467 -0.651114 
1.75558 1.23347 -0.639041 1.76644 1.24264 -0.659075 1.76643 1.26486 -0.68129 
1.76642 1.29127 -0.707689 1.76641 1.31186 -0.728267 1.7664 1.32267 -0.739072 
1.76638 1.36001 -0.776389 1.76636 1.40441 -0.820773 1.76636 1.40947 -0.825826 
1.76139 1.40898 -0.820369 1.76633 1.45724 -0.873567 1.7663 1.51388 -0.930183 
1.7663 1.52007 -0.936374 1.76626 1.59484 -1.0111 1.76625 1.60708 -1.02333 
1.75686 1.60399 -1.01084 1.74763 1.1431 -0.540734 1.74763 1.14371 -0.541338 
1.74708 1.14358 -0.540661 1.74762 1.14611 -0.543734 1.74762 1.1492 -0.546825 
1.74762 1.15248 -0.550101 1.74762 1.15604 -0.553662 1.72653 1.17433 -0.550867 
1.74762 1.16 -0.557615 1.73032 1.175 -0.555326 1.74761 1.16447 -0.562082 
1.7346 1.17576 -0.560362 1.74761 1.16959 -0.567196 1.7395 1.17663 -0.566126 
1.74761 1.17551 -0.573115 1.74761 1.17807 -0.575676 1.74516 1.17764 -0.572793 
1.7476 1.18242 -0.580018 1.7476 1.19051 -0.588114 1.74759 1.20006 -0.597649 
1.74759 1.21132 -0.608914 1.74758 1.22467 -0.62225 1.74758 1.23258 -0.630155 
1.73956 1.23169 -0.621249 1.74757 1.24049 -0.638064 1.74756 1.25927 -0.656835 
1.74755 1.28158 -0.679134 1.74753 1.30811 -0.705639 1.74753 1.31051 -0.708039 
1.74504 1.31033 -0.705368 1.74752 1.33964 -0.737156 1.74749 1.37715 -0.774643 
1.74748 1.40762 -0.805099 1.74747 1.42177 -0.819238 1.74744 1.47486 -0.8723 
1.74742 1.51017 -0.907592 1.7474 1.53804 -0.93544 1.74737 1.60086 -0.998228 
1.72624 1.16166 -0.537897 1.71416 1.17214 -0.536294 1.72624 1.16466 -0.540897 
1.71703 1.17265 -0.539675 1.72624 1.16775 -0.543989 1.71999 1.17317 -0.54316 
1.72624 1.17103 -0.547266 1.72624 1.17428 -0.55052 1.72313 1.17373 -0.546853 
1.72624 1.17459 -0.550828 1.72623 1.17856 -0.554785 1.72623 1.18303 -0.559256 
1.72623 1.18815 -0.564378 1.72622 1.19409 -0.570307 1.72622 1.201 -0.577224 
1.72622 1.20912 -0.58534 1.70473 1.22783 -0.582552 1.72621 1.21869 -0.594901 
1.71449 1.22891 -0.593394 1.7262 1.23 -0.6062 1.7262 1.23021 -0.60641 
1.72599 1.23019 -0.606173 1.7262 1.24338 -0.619581 1.72619 1.25926 -0.635453 
1.72617 1.27813 -0.654298 1.72616 1.30053 -0.676691 1.72616 1.30899 -0.685147 
1.71732 1.30836 -0.675681 1.72615 1.32717 -0.703317 1.72613 1.35886 -0.734985 
1.72611 1.39655 -0.772663 1.7261 1.40554 -0.781644 1.71717 1.40467 -0.771836 
1.72608 1.44142 -0.8175 1.72605 1.49481 -0.870864 1.72604 1.50598 -0.882023 
1.71616 1.50404 -0.8702 1.72601 1.55837 -0.934381 1.72599 1.59384 -0.969822 
1.70263 1.18213 -0.534764 1.70263 1.18513 -0.537764 1.70262 1.18824 -0.540856 
1.70262 1.19151 -0.544134 1.70262 1.19508 -0.547698 1.70262 1.19904 -0.551658 
1.70262 1.20352 -0.556135 1.67803 1.22486 -0.552886 1.70261 1.20865 -0.561265 
1.68328 1.22544 -0.558716 1.70261 1.2146 -0.567206 1.68935 1.22612 -0.565464 
1.7026 1.22154 -0.574139 1.7026 1.22759 -0.58019 1.69643 1.2269 -0.573333 
1.7026 1.22968 -0.582276 1.70259 1.23928 -0.591866 1.70259 1.25061 -0.603203 
1.70258 1.26405 -0.616633 1.70257 1.28 -0.632568 1.70256 1.29894 -0.651495 
1.70256 1.30731 -0.659866 1.69377 1.30668 -0.650452 1.70255 1.32144 -0.673993 
1.70253 1.34822 -0.700751 1.70251 1.38008 -0.732588 1.7025 1.40323 -0.755732 
1.67926 1.40097 -0.730226 1.70249 1.41799 -0.770478 1.70247 1.46311 -0.815581 
1.70244 1.50135 -0.853794 1.70243 1.51685 -0.869278 1.7024 1.58081 -0.933212 
1.7024 1.58608 -0.938475 1.69828 1.58473 -0.933008 1.67726 1.20414 -0.531399 
1.65617 1.22243 -0.5286 1.67726 1.20714 -0.534399 1.65923 1.22278 -0.532007 
1.67726 1.21023 -0.537491 1.66239 1.22313 -0.535519 1.67726 1.21351 -0.54077 
1.66574 1.2235 -0.539243 1.67725 1.21709 -0.544337 1.66939 1.22391 -0.543295 
1.67725 1.22105 -0.5483 1.67725 1.22477 -0.552022 1.67344 1.22436 -0.547796 
1.67725 1.22553 -0.552783 1.67725 1.23067 -0.557922 1.67725 1.23662 -0.563875 
1.67724 1.24358 -0.570825 1.67724 1.25174 -0.578985 1.67723 1.26138 -0.588606 
1.67723 1.27275 -0.599984 1.67722 1.28625 -0.613467 1.65687 1.30405 -0.610927 
1.67721 1.30226 -0.62947 1.67721 1.3055 -0.632708 1.6738 1.30526 -0.629053 
1.6772 1.32129 -0.648485 1.67719 1.34391 -0.671095 1.67718 1.37082 -0.697996 
1.67716 1.40076 -0.727921 1.67716 1.40285 -0.730013 1.67714 1.44099 -0.76813 
1.67712 1.4864 -0.813519 1.67711 1.49639 -0.823503 1.66816 1.49463 -0.81279 
1.67709 1.54048 -0.867574 1.67707 1.57775 -0.904827 1.65083 1.22706 -0.527892 
[...]
POINT_DATA 748
FIELD FieldData 5
pressure 1 748 float
0.302631 0.3045 0.302309 0.302448 0.303763 0.304034 0.305071 0.30577 0.305915 
0.307502 0.308171 0.309334 0.310319 0.311113 0.311771 0.313617 0.315427 0.314079 
0.31555 0.31519 0.314362 0.31222 0.310276 0.305776 0.26755 0.204102 0.201411 
0.200746 0.182173 0.178653 0.178597 0.178589 0.178565 0.178574 0.178574 0.178573 
0.29786 0.300563 0.302295 0.306056 0.302773 0.302206 0.304563 0.303827 0.306523 
0.31113 0.305106 0.306546 0.30662 0.310317 0.309187 0.309522 0.309585 0.315034 
0.31216 0.31281 0.313249 0.313902 0.315534 0.317436 0.315595 0.317172 0.318436 
0.31846 0.318792 0.317056 0.314216 0.312516 0.315659 0.297602 0.251917 0.200594 
0.193946 0.180557 0.178594 0.178577 0.178568 0.178573 0.178574 0.178573 0.316093 
0.244923 0.274159 0.274405 0.28367 0.300029 0.28467 0.290981 0.300674 0.297282 
0.293139 0.296414 0.302867 0.312435 0.298516 0.300507 0.299906 0.305957 0.30483 
0.311825 0.306492 0.311132 0.311617 0.321102 0.311144 0.319227 0.314264 0.315809 
0.317174 0.316242 0.317214 0.317979 0.32053 0.318071 0.31911 0.32011 0.320571 
0.321224 0.320527 0.319447 0.315712 0.315542 0.285064 0.232617 0.201701 0.18819 
0.179614 0.178609 0.178571 0.178571 0.178574 0.178573 0.178573 0.316106 0.294967 
0.31624 0.321211 0.327828 0.288496 0.301871 0.303895 0.321386 0.332592 0.304531 
0.317037 0.329895 0.31177 0.313497 0.313885 0.327159 0.315628 0.324887 0.318878 
0.321372 0.322912 0.321483 0.322573 0.329374 0.323616 0.327036 0.324207 0.324216 
0.324295 0.323676 0.323182 0.329197 0.32288 0.323043 0.324224 0.322538 0.322611 
0.321033 0.319376 0.321282 0.303787 0.264125 0.207119 0.199523 0.198706 0.183469 
0.178957 0.178599 0.178566 0.178573 0.178574 0.178574 0.178573 0.178573 0.334197 
0.333566 0.335753 0.333011 0.341001 0.331868 0.339192 0.331042 0.337268 0.33083 
0.335357 0.330999 0.333394 0.331351 0.331363 0.3314 0.331012 0.330835 0.33077 
0.336402 0.330643 0.330289 0.33354 0.32975 0.327286 0.325454 0.324136 0.322744 
0.323831 0.314144 0.282789 0.235554 0.199089 0.190855 0.180667 0.178641 0.178593 
0.178589 0.178567 0.178574 0.178574 0.178573 0.178573 0.178573 0.342674 0.342489 
0.342887 0.341495 0.34041 0.339371 0.338522 0.344173 0.337853 0.342602 0.337431 
0.341176 0.337342 0.339742 0.337478 0.337656 0.33825 0.33724 0.33615 0.33418 
0.331257 0.327446 0.32533 0.327989 0.315526 0.288765 0.250126 0.200174 0.196535 
0.196285 0.183573 0.179202 0.178593 0.17857 0.178571 0.178574 0.178574 0.178573 
0.347855 0.351892 0.346824 0.349929 0.345911 0.348028 0.344941 0.344297 0.346014 
0.344215 0.343161 0.342337 0.341499 0.340847 0.340189 0.33928 0.338403 0.337984 
0.336892 0.334996 0.334904 0.334961 0.313627 0.284773 0.249946 0.20836 0.195051 
0.194291 0.18594 0.180125 0.178668 0.178586 0.178583 0.178568 0.178573 0.178574 
0.178574 0.178573 0.178573 0.354252 0.352743 0.351226 0.349703 0.348135 0.346513 
0.34489 0.342635 0.343179 0.340254 0.34161 0.338236 0.339877 0.338613 0.337652 
0.335548 0.319862 0.29953 0.273025 0.240988 0.20496 0.192169 0.191684 0.185975 
0.180683 0.178873 0.178582 0.17858 0.178571 0.178569 0.178574 0.178574 0.178573 
0.178573 0.178573 0.357376 0.343605 0.355453 0.342938 0.353531 0.342928 0.35152 
0.342912 0.348923 0.34289 0.346226 0.343123 0.343121 0.341487 0.330969 0.31827 
0.303872 0.286808 0.267075 0.244169 0.218834 0.187326 0.193112 0.18884 0.18868 
0.184152 0.180528 0.178975 0.17858 0.178578 0.178568 0.178574 0.178574 0.178574 
0.178573 0.178573 0.33215 0.324637 0.317757 0.31021 0.302311 0.293264 0.28341 
0.272005 0.259325 0.244984 0.229239 0.212488 0.184514 0.195645 0.186132 0.185783 
0.184624 0.181683 0.179779 0.178902 0.178587 0.178573 0.178573 0.178566 0.178572 
0.178574 0.178574 0.178574 0.178573 0.178573 0.178573 0.261391 0.254654 0.248513 
0.242276 0.23577 0.228865 0.221445 0.213476 0.204964 0.181983 0.196032 0.182768 
0.18698 0.183424 0.183293 0.182467 0.181036 0.179902 0.179169 0.178744 0.178582 
0.178571 0.178571 0.178567 0.178572 0.178574 0.178574 0.178573 0.178573 0.178573 
0.205879 0.20207 0.198638 0.180059 0.19527 0.180346 0.191895 0.180591 0.188444 
0.180809 0.184927 0.180985 0.181356 0.181117 0.181109 0.180667 0.180196 0.179764 
0.179372 0.179038 0.178776 0.178626 0.178568 0.17857 0.178568 0.178568 0.178566 
0.178571 0.178574 0.178574 0.178574 0.178573 0.178573 0.181408 0.179772 0.180115 
0.179838 0.179827 0.179736 0.179631 0.179511 0.179396 0.179267 0.179141 0.179008 
0.178885 0.178771 0.178681 0.178617 0.178579 0.178568 0.178568 0.178568 0.178568 
0.178572 0.178574 0.178574 0.178573 0.178573 0.178573 0.178573 0.178573 0.178835 
0.178801 0.178774 0.178749 0.178726 0.178699 0.178676 0.178649 0.178626 0.178604 
0.178587 0.178575 0.17857 0.178569 0.178568 0.178568 0.17857 0.178571 0.178573 
0.178573 0.178573 0.178573 0.178573 0.178573 0.178573 0.178573 0.17861 0.178604 
0.178599 0.178596 0.17859 0.178586 0.178582 0.178578 0.178574 0.178572 0.178572 
0.178571 0.17857 0.178571 0.17857 0.178572 0.178573 0.178574 0.178573 0.178573 
0.178573 0.178573 0.178573 0.178573 0.178575 0.178574 0.178574 0.178573 0.178572 
0.178572 0.178572 0.178572 0.178573 0.178572 0.178573 0.178573 0.178573 0.178573 
0.178574 0.178573 0.178573 0.178573 0.178573 0.178573 0.178573 0.178573 0.178573 
0.178573 0.178572 0.178572 0.178572 0.178573 0.178573 0.178574 0.178573 0.178573 
0.178574 0.178574 0.178574 0.178574 0.178574 0.178574 0.178574 0.178574 0.178573 
0.178573 0.178573 0.178573 0.178573 0.178573 0.178573 0.178573 0.178573 0.178574 
0.178574 0.178574 0.178574 0.178574 0.178574 0.178574 0.178574 0.178574 0.178574 
0.178574 0.178574 0.178574 0.178574 0.178574 0.178574 0.178573 0.178573 0.178573 
0.178573 0.178573 0.178573 0.178573 0.178573 0.178574 0.178574 0.178574 0.178574 
0.178574 0.178574 0.178574 0.178574 0.178574 0.178573 0.178573 0.178573 0.178573 
0.178573 0.178573 0.178573 0.178573 0.178573 0.178573 0.178573 0.178573 0.178573 
0.178573 0.178573 0.178573 0.178573 0.178573 0.178573 0.178573 0.178573 0.178573 
0.178573 0.178573 0.178573 0.178573 0.178573 0.178573 0.178573 0.178573 0.178573 
0.178573 0.178573 0.178573 0.178573 0.178573 0.178573 0.178573 0.178573 0.178573 
0.178573 0.178573 0.178573 0.178573 0.178573 0.178573 0.178573 0.178573 0.178573 
0.178573 0.178573 0.178573 0.178573 0.178573 0.178573 0.178573 0.178573 0.178573 
0.178573 0.178573 0.178573 0.178573 0.178573 0.178573 0.178573 0.178573 0.178573 
0.178573 0.178573 0.178573 0.178573 0.178573 0.178573 0.178573 0.178573 0.178573 
0.178573 0.178573 0.178573 0.178573 0.178573 0.178573 0.178573 0.178573 0.178573 
0.178573 0.178573 0.178573 0.178573 0.178573 0.178573 0.178573 0.178573 0.178573 
0.178573 0.178573 0.178573 0.178573 0.178573 0.178573 0.178573 0.178573 0.178573 
0.178573 0.178573 0.178573 0.178573 0.178573 0.178573 0.178573 0.178573 0.178573 
0.178573 
velocity_u 1 748 float
0.861365 0.859881 0.864308 0.863578 0.863445 0.862143 0.861922 0.859237 0.861416 
0.860343 0.858874 0.858702 0.857723 0.856208 0.856854 0.855806 0.85206 0.855932 
0.856082 0.857271 0.858534 0.861777 0.864009 0.868656 0.907605 0.97218 0.974949 
0.975667 0.99607 0.999915 0.999975 0.999983 1.00001 0.999999 0.999999 1 
0.858396 0.859195 0.858028 0.852603 0.860506 0.859928 0.859639 0.858982 0.854772 
0.849235 0.858979 0.857114 0.856485 0.85217 0.855463 0.855284 0.855021 0.847795 
0.853405 0.852836 0.85183 0.852782 0.851867 0.848275 0.85189 0.852557 0.853376 
0.853478 0.853025 0.856109 0.860007 0.861691 0.858473 0.87687 0.923382 0.975945 
0.983092 0.997804 0.999978 0.999996 1 0.999999 0.999999 1 0.462173 
0.732312 0.716136 0.80765 0.804334 0.824511 0.847459 0.84653 0.840068 0.858196 
0.856992 0.854969 0.846363 0.836393 0.857884 0.85707 0.856801 0.852343 0.849917 
0.841687 0.852095 0.849224 0.845959 0.835298 0.849219 0.839657 0.847273 0.846219 
0.843733 0.846455 0.847025 0.847269 0.843373 0.84764 0.848235 0.84925 0.849429 
0.847937 0.851341 0.853758 0.858411 0.858593 0.889448 0.942835 0.974662 0.989384 
0.998858 0.999962 1 1 0.999998 0.999999 1 0.47296 0.67108 
0.624888 0.773673 0.804269 0.756604 0.812565 0.799966 0.811716 0.81174 0.823729 
0.821419 0.816219 0.831482 0.831509 0.82982 0.82107 0.833781 0.82603 0.834792 
0.834653 0.830757 0.834962 0.836483 0.829592 0.837373 0.833693 0.838342 0.838362 
0.838243 0.840773 0.842718 0.837062 0.844171 0.844505 0.842851 0.846951 0.849458 
0.852257 0.854397 0.852008 0.870869 0.910641 0.9691 0.97696 0.977837 0.994574 
0.999577 0.999974 1.00001 1 0.999999 0.999999 1 1 0.807407 
0.810582 0.80802 0.811739 0.811138 0.815697 0.813361 0.81912 0.81568 0.821771 
0.818428 0.823845 0.821696 0.825567 0.825594 0.82552 0.828376 0.83066 0.832742 
0.827697 0.834624 0.835837 0.831952 0.836741 0.840912 0.844762 0.847909 0.850129 
0.848413 0.859272 0.891841 0.939644 0.977417 0.986413 0.997684 0.999928 0.99998 
0.999983 1.00001 0.999999 0.999999 1 1 1 0.808989 0.80944 
0.808999 0.81115 0.813124 0.814981 0.817034 0.814158 0.819269 0.816173 0.821458 
0.818622 0.82344 0.821347 0.824944 0.825459 0.824237 0.827333 0.830588 0.834236 
0.83879 0.843898 0.846603 0.844048 0.856885 0.884906 0.925575 0.976341 0.98013 
0.980404 0.994454 0.999306 0.999977 1 1 0.999999 0.999999 1 
0.809092 0.807741 0.810071 0.808701 0.811309 0.810278 0.812462 0.813983 0.811922 
0.814168 0.816242 0.818729 0.821277 0.823955 0.826815 0.829651 0.832358 0.833029 
0.834819 0.83783 0.837937 0.837894 0.859288 0.888249 0.924 0.967641 0.98169 
0.982528 0.991819 0.998278 0.999897 0.999988 0.999989 1.00001 1 0.999999 
0.999999 1 1 0.807926 0.808856 0.810612 0.81274 0.814954 0.817541 
0.820083 0.826368 0.822748 0.829749 0.825934 0.830912 0.828574 0.831682 0.831711 
0.835239 0.851735 0.874661 0.901653 0.934587 0.971332 0.984824 0.985342 0.991762 
0.997654 0.999669 0.999989 0.999993 1 1 0.999999 0.999999 1 
1 1 0.810814 0.827877 0.811693 0.826535 0.81401 0.826818 0.816809 
0.826801 0.819392 0.826635 0.823436 0.826108 0.826892 0.827588 0.839863 0.851619 
0.867435 0.884694 0.90585 0.929819 0.956798 0.99016 0.983941 0.988508 0.988689 
0.993741 0.997817 0.999553 0.999993 0.999995 1.00001 0.999999 0.999999 0.999999 
1 1 0.839557 0.845173 0.852701 0.86013 0.868874 0.87756 0.888684 
0.899835 0.913845 0.928433 0.945199 0.962901 0.993268 0.981144 0.991468 0.991858 
0.993174 0.996509 0.998651 0.999633 0.999986 1 1 1.00001 1 
0.999999 0.999999 0.999999 1 1 1 0.911849 0.917394 0.924107 
0.930721 0.937577 0.945019 0.952834 0.961543 0.9707 0.996118 0.98051 0.995228 
0.990497 0.994489 0.994635 0.995582 0.99722 0.998505 0.999329 0.999808 0.999989 
1 1 1.00001 1 0.999999 0.999999 1 1 1 
0.969354 0.972977 0.976939 0.998288 0.980781 0.997965 0.984665 0.997686 0.988627 
0.997443 0.992696 0.997246 0.996826 0.997104 0.997112 0.99762 0.998159 0.998648 
0.999092 0.999472 0.99977 0.999936 1.00001 1.00001 1.00001 1.00001 1.00001 
1 0.999999 0.999999 0.999999 1 1 0.996737 0.998646 0.998216 
0.998546 0.998561 0.998658 0.998783 0.998922 0.999056 0.999204 0.99935 0.999502 
0.999645 0.999775 0.999877 0.999949 0.999995 1.00001 1 1.00001 1.00001 
0.999999 0.999999 0.999999 1 1 1 1 1 0.999702 
0.999737 0.999767 0.999797 0.999824 0.999855 0.999882 0.999913 0.999938 0.999963 
0.999987 1 1 1.00001 1.00001 1.00001 1 1 0.999999 
0.999999 1 1 1 1 1 1 0.999958 0.999964 
0.999969 0.999973 0.999979 0.999983 0.999988 0.999998 0.999995 0.999997 1 
0.999999 1 1 1 1 1 0.999999 1 1 
1 1 1 1 0.999995 0.999996 0.999997 0.999998 0.999998 
0.999999 0.999999 1 0.999999 1 1 1 1 1 
0.999999 0.999999 1 1 1 1 1 1 1 
1 1 1 1 1 1 0.999999 0.999999 0.999999 
0.999999 0.999999 0.999999 0.999999 0.999999 0.999999 0.999999 0.999999 1 
1 1 1 1 1 1 1 1 0.999999 
0.999999 0.999999 0.999999 0.999999 0.999999 0.999999 0.999999 0.999999 0.999999 
0.999999 0.999999 0.999999 0.999999 0.999999 0.999999 1 1 1 
1 1 1 1 1 0.999999 0.999999 0.999999 0.999999 
0.999999 0.999999 0.999999 0.999999 1 1 1 1 1 
1 1 1 1 1 1 1 1 1 
1 0.999999 1 1 1 1 1 1 1 
1 1 1 1 1 1 1 1 1 
1 1 1 1 1 1 1 1 1 
1 1 1 1 1 1 1 1 1 
1 1 1 1 1 1 1 1 1 
1 1 1 1 1 1 1 1 1 
1 1 1 1 1 1 1 1 1 
1 1 1 1 1 1 1 1 1 
1 1 1 1 1 1 1 1 1 
1 1 1 1 1 1 1 1 1 
1 1 1 1 1 1 1 1 1 
1 
velocity_v 1 748 float
0.0752437 0.0783898 0.078254 0.0777369 0.0804769 0.0798445 0.0849867 0.0844452 0.08694 
0.0911958 0.0912635 0.098145 0.101954 0.102752 0.107238 0.111572 0.115561 0.112477 
0.115939 0.118443 0.119065 0.120911 0.122545 0.119201 0.0866469 0.0288076 0.0261826 
0.0254572 0.00439817 0.000115977 4.90769e-05 3.75286e-05 -1.10233e-05 1.10459e-06 3.75501e-07 7.35264e-07 
0.0591298 0.0666829 0.0722842 0.0800377 0.0743849 0.0718053 0.0782586 0.075528 0.0813654 
0.0941237 0.0797089 0.0840085 0.0833184 0.0923954 0.0911775 0.0920592 0.0920118 0.105146 
0.101297 0.104101 0.104129 0.110018 0.115771 0.118938 0.115929 0.11926 0.122116 
0.12238 0.122854 0.123299 0.124066 0.124568 0.127347 0.113296 0.073056 0.025219 
0.0178723 0.00241263 4.09295e-05 1.85809e-05 -6.14615e-06 3.1906e-07 8.44023e-07 -2.32904e-07 0.159193 
0.0868783 0.0864071 0.0389611 0.0618318 0.111171 0.0409067 0.06096 0.0892605 0.0580368 
0.0503853 0.0627661 0.0804085 0.107932 0.0617271 0.0686324 0.0674959 0.0799464 0.0792017 
0.101444 0.0813101 0.0941332 0.0972086 0.120822 0.0941563 0.113446 0.101528 0.106215 
0.10814 0.108261 0.114714 0.119581 0.122257 0.120306 0.123469 0.125975 0.126815 
0.128802 0.126899 0.127679 0.127407 0.12727 0.103307 0.0556722 0.0265645 0.0114358 
0.00128055 5.83511e-05 3.59223e-06 -2.91233e-06 1.3548e-06 -5.38291e-08 -1.50144e-07 0.161781 0.141637 
0.198193 0.203869 0.199595 0.11823 0.13113 0.152273 0.170101 0.174493 0.119517 
0.142634 0.161404 0.116253 0.117982 0.121416 0.14934 0.11582 0.138803 0.119263 
0.122029 0.129452 0.121721 0.121291 0.13862 0.123011 0.131897 0.126325 0.126441 
0.126549 0.128186 0.130537 0.140295 0.13249 0.133102 0.134704 0.132516 0.132035 
0.131623 0.130661 0.133016 0.117452 0.0854039 0.0316285 0.0243065 0.0234569 0.00595516 
0.000487715 4.79347e-05 -8.30799e-06 1.98173e-07 1.20779e-06 1.38134e-06 2.22766e-07 7.85299e-08 0.190292 
0.178825 0.188128 0.174653 0.177686 0.163824 0.172677 0.156581 0.16788 0.152317 
0.162169 0.149219 0.154904 0.146513 0.146487 0.146634 0.142272 0.140349 0.140121 
0.151705 0.140649 0.141523 0.145922 0.141128 0.139671 0.13821 0.136904 0.135348 
0.138593 0.127697 0.0999709 0.0592223 0.0240158 0.0146516 0.00258248 0.000100265 3.94779e-05 
3.32319e-05 -8.96822e-06 1.16297e-06 1.2721e-06 -2.31308e-07 -2.25404e-07 -1.09197e-07 0.183758 0.182454 
0.183637 0.177928 0.173913 0.170652 0.166977 0.174518 0.162716 0.170847 0.158955 
0.16663 0.156383 0.161929 0.155228 0.155054 0.157033 0.153229 0.15038 0.147861 
0.145342 0.142775 0.141154 0.142702 0.132541 0.108299 0.0712405 0.0248896 0.021288 
0.0210145 0.00620176 0.00079679 3.61156e-05 -1.41762e-06 -4.50867e-06 7.74164e-07 4.78254e-07 1.83803e-08 
0.183279 0.18337 0.180419 0.181478 0.178676 0.179836 0.176788 0.174785 0.177508 
0.174556 0.171547 0.168488 0.165504 0.162622 0.159554 0.155848 0.155314 0.151568 
0.151135 0.146411 0.146328 0.146381 0.12914 0.107147 0.0749335 0.0330372 0.0198763 
0.0190844 0.00909312 0.0019515 0.000133943 2.81692e-05 2.2216e-05 -6.71832e-06 6.64371e-07 1.43722e-06 
1.33997e-06 4.52501e-08 -9.56488e-08 0.183304 0.181796 0.180155 0.178055 0.175709 0.173445 
0.17062 0.166436 0.167876 0.16412 0.164443 0.162365 0.160704 0.156502 0.159194 
0.152999 0.13779 0.1176 0.0935216 0.0640327 0.0300841 0.0170136 0.0164571 0.0093851 
0.00265684 0.000396314 1.9423e-05 1.04553e-05 -3.27881e-06 -5.59741e-06 9.83327e-07 6.79121e-07 -7.72447e-08 
-7.34172e-08 -6.88735e-08 0.17827 0.166146 0.176688 0.166399 0.174513 0.165185 0.171793 
0.164679 0.170562 0.16492 0.167301 0.166372 0.164681 0.165356 0.155464 0.145197 
0.130409 0.114183 0.0930856 0.0695787 0.0435679 0.0114074 0.0176228 0.0131685 0.0129651 
0.00723646 0.00253515 0.00052413 9.95492e-06 6.20011e-06 -8.03533e-06 8.53822e-07 1.17521e-06 1.15787e-06 
1.57008e-07 -3.5327e-08 0.156587 0.151336 0.143839 0.137181 0.128388 0.120717 0.110183 
0.0997287 0.0867329 0.0728556 0.0566645 0.0393199 0.00817654 0.0207771 0.0101514 0.00977065 
0.00806077 0.00410437 0.00156201 0.000445027 1.87315e-05 -8.10401e-07 -8.68347e-07 -1.09319e-05 -1.52598e-06 
1.02673e-06 1.29105e-06 5.85876e-07 -3.22894e-08 -3.10943e-08 -2.50161e-08 0.089063 0.0838537 0.0773468 
0.0709886 0.0644013 0.0571226 0.0493822 0.0406249 0.0312961 0.00480034 0.0212345 0.00585161 
0.010941 0.00675262 0.00657791 0.00540932 0.00336928 0.00176126 0.000807891 0.000237319 1.1839e-05 
-4.94137e-06 -5.04863e-06 -9.53061e-06 -2.3118e-06 1.31901e-06 1.22724e-06 6.64626e-08 -1.29664e-08 3.21757e-08 
0.033287 0.0297036 0.0254546 0.00224116 0.0213859 0.00264276 0.0172105 0.00298399 0.0129299 
0.00327624 0.00848449 0.00349944 0.00394591 0.00364151 0.00363365 0.00295903 0.00227037 0.00166075 
0.00112777 0.00066428 0.000288041 7.52496e-05 -6.37535e-06 -7.23026e-06 -1.08218e-05 -1.0628e-05 -9.81997e-06 
-2.79677e-06 9.07099e-07 9.29918e-07 9.12279e-07 1.11996e-07 3.38131e-08 0.00385538 0.00176664 0.0022756 
0.00191337 0.00189554 0.00176564 0.00159663 0.00141207 0.00123213 0.00103899 0.000845569 0.000644505 
0.000453919 0.000285959 0.000154232 6.47339e-05 7.96978e-06 -7.51414e-06 -9.12955e-06 -6.04146e-06 -7.57752e-06 
-5.12131e-07 9.4577e-07 8.80328e-07 6.87921e-07 2.81132e-07 -2.12318e-08 -3.29395e-09 -1.12116e-08 0.000413448 
0.000369717 0.000325467 0.000281596 0.000240541 0.000197605 0.000157862 0.00011802 8.20253e-05 4.92216e-05 
2.30337e-05 7.61215e-06 -6.02823e-06 -5.51138e-06 -7.9239e-06 -6.86482e-06 -5.66296e-06 -3.82172e-06 7.11436e-07 
3.3214e-07 3.69216e-07 4.10028e-07 1.61472e-07 -6.91617e-08 -2.49916e-08 -3.56604e-08 6.68734e-05 5.77441e-05 
4.81297e-05 4.16793e-05 3.30419e-05 2.66896e-05 1.89538e-05 1.25286e-05 5.68223e-06 -1.17357e-06 -3.89936e-07 
-4.69112e-06 -6.37899e-06 -3.73511e-06 -5.92904e-06 -6.17338e-07 2.30969e-07 9.07334e-07 4.16646e-07 4.16496e-07 
1.41534e-07 3.02664e-07 -4.68478e-08 -3.43931e-08 5.86295e-06 3.54475e-06 1.75198e-06 -5.64521e-07 -1.669e-06 
-3.02388e-06 -3.28865e-06 -2.72916e-06 -1.99247e-07 -1.58333e-06 1.92118e-07 -7.62684e-07 1.06784e-06 1.02112e-06 
1.39334e-06 1.88165e-07 5.89722e-07 5.09255e-07 1.16198e-07 5.74299e-08 -8.17065e-08 -4.10231e-08 -4.48306e-08 
-4.14542e-08 -4.53253e-07 -2.42254e-07 4.19352e-08 5.39081e-07 8.09255e-07 6.61748e-07 1.03635e-06 1.09331e-06 
1.28643e-06 1.24779e-06 1.32775e-06 6.64933e-07 4.87036e-07 -1.73886e-08 4.70278e-07 6.06929e-07 8.98649e-07 
3.42306e-07 -1.69366e-08 -1.99946e-08 -2.01242e-08 -2.14197e-08 -2.14743e-08 -3.43352e-08 -5.44254e-08 -7.06927e-07 
1.56966e-06 -5.81454e-07 1.0778e-06 -2.70192e-07 5.57336e-07 8.95605e-08 1.48605e-07 1.88749e-07 3.00397e-07 
6.27377e-07 8.39962e-07 1.17232e-06 1.18172e-06 1.16133e-06 7.13445e-07 3.8411e-07 6.51517e-08 4.70263e-08 
2.03742e-08 2.55303e-09 -3.86321e-08 -5.91966e-08 -5.62829e-08 1.63704e-06 1.64533e-06 1.45629e-06 1.28073e-06 
1.07042e-06 8.22957e-07 5.9921e-07 3.65508e-07 2.47627e-07 1.50275e-07 1.66653e-07 9.95219e-08 5.05298e-09 
-5.7358e-08 -6.29815e-08 -7.26608e-08 -4.52552e-08 -4.5448e-08 -4.94272e-08 -7.15441e-08 2.28948e-07 1.80076e-07 
2.12399e-07 2.28325e-07 2.61951e-07 2.96321e-07 3.16439e-07 3.08024e-07 2.42288e-07 1.46119e-07 9.50237e-09 
-5.51245e-08 -8.49555e-08 -7.08162e-08 -2.45955e-08 -4.60077e-08 -7.32106e-08 3.91076e-07 3.8298e-07 3.16005e-07 
2.60838e-07 1.91497e-07 1.26712e-07 7.07992e-08 2.32348e-08 -4.91818e-10 -1.59047e-08 -3.20604e-08 -7.21861e-08 
-7.24387e-08 -7.26293e-08 -3.90723e-08 -2.70951e-08 -3.84207e-08 -6.00913e-08 6.57735e-08 4.86424e-08 5.19957e-08 
4.92822e-08 5.60588e-08 5.31663e-08 4.42882e-08 1.56192e-08 -1.38529e-08 -4.23778e-08 -7.73137e-08 -8.06348e-08 
-6.55432e-08 -6.60269e-08 -3.41318e-08 -1.28e-08 -3.67946e-08 -4.57812e-08 -3.44871e-08 5.29126e-08 5.05741e-08 
2.68986e-08 1.08881e-08 -4.821e-09 -1.76667e-08 -2.95391e-08 -4.66329e-08 -4.68621e-08 -4.95055e-08 -6.05961e-08 
-6.03991e-08 -5.2748e-08 -2.50376e-08 -1.34312e-08 -2.86599e-08 -1.55428e-08 -1.63919e-08 -1.9187e-08 -2.05161e-08 