# vtk DataFile Version 5.1
vtk output
ASCII
DATASET STRUCTURED_GRID
DIMENSIONS 12 55 12
POINTS 7920 float
1.81747 1.12391 -0.55 1.81747 1.12541 -0.55 1.81747 1.12821 -0.55 
1.81747 1.13342 -0.55 1.81747 1.14298 -0.55 1.81747 1.16026 -0.55 
1.81747 1.19046 -0.55 1.81747 1.24033 -0.55 1.81747 1.31549 -0.55 
1.81747 1.41446 -0.55 1.81747 1.52391 -0.55 1.81747 1.62391 -0.55 
1.81747 1.12391 -0.547 1.81747 1.12541 -0.547 1.81747 1.12821 -0.547 
1.81747 1.13342 -0.547 1.81747 1.14298 -0.547 1.81747 1.16026 -0.547 
1.81747 1.19046 -0.547 1.81747 1.24033 -0.547 1.81747 1.31549 -0.547 
1.81747 1.41446 -0.547 1.81747 1.52391 -0.547 1.81747 1.62391 -0.547 
1.81747 1.12391 -0.543529 1.81747 1.12541 -0.543529 1.81747 1.12821 -0.543529 
1.81747 1.13342 -0.543529 1.81747 1.14298 -0.543529 1.81747 1.16026 -0.543529 
1.81747 1.19046 -0.543529 1.81747 1.24033 -0.543529 1.81747 1.31549 -0.543529 
1.81747 1.41446 -0.543529 1.81747 1.52391 -0.543529 1.81747 1.62391 -0.543529 
1.81747 1.12391 -0.539518 1.81747 1.12541 -0.539518 1.81747 1.12821 -0.539518 
1.81747 1.13342 -0.539518 1.81747 1.14298 -0.539518 1.81747 1.16026 -0.539518 
1.81747 1.19046 -0.539518 1.81747 1.24033 -0.539518 1.81747 1.31549 -0.539518 
1.81747 1.41446 -0.539518 1.81747 1.52391 -0.539518 1.81747 1.62391 -0.539518 
1.81747 1.12391 -0.534886 1.81747 1.12541 -0.534886 1.81747 1.12821 -0.534886 
1.81747 1.13342 -0.534886 1.81747 1.14298 -0.534886 1.81747 1.16026 -0.534886 
1.81747 1.19046 -0.534886 1.81747 1.24033 -0.534886 1.81747 1.31549 -0.534886 
1.81747 1.41446 -0.534886 1.81747 1.52391 -0.534886 1.81747 1.62391 -0.534886 
1.81747 1.12391 -0.529545 1.81747 1.12541 -0.529545 1.81747 1.12821 -0.529545 
1.81747 1.13342 -0.529545 1.81747 1.14298 -0.529545 1.81747 1.16026 -0.529545 
1.81747 1.19046 -0.529545 1.81747 1.24033 -0.529545 1.81747 1.31549 -0.529545 
1.81747 1.41446 -0.529545 1.81747 1.52391 -0.529545 1.81747 1.62391 -0.529545 
1.81747 1.12391 -0.523394 1.81747 1.12541 -0.523394 1.81747 1.12821 -0.523394 
1.81747 1.13342 -0.523394 1.81747 1.14298 -0.523394 1.81747 1.16026 -0.523394 
1.81747 1.19046 -0.523394 1.81747 1.24033 -0.523394 1.81747 1.31549 -0.523394 
1.81747 1.41446 -0.523394 1.81747 1.52391 -0.523394 1.81747 1.62391 -0.523394 
1.81747 1.12391 -0.516323 1.81747 1.12541 -0.516323 1.81747 1.12821 -0.516323 
1.81747 1.13342 -0.516323 1.81747 1.14298 -0.516323 1.81747 1.16026 -0.516323 
1.81747 1.19046 -0.516323 1.81747 1.24033 -0.516323 1.81747 1.31549 -0.516323 
1.81747 1.41446 -0.516323 1.81747 1.52391 -0.516323 1.81747 1.62391 -0.516323 
1.81747 1.12391 -0.50821 1.81747 1.12541 -0.50821 1.81747 1.12821 -0.50821 
1.81747 1.13342 -0.50821 1.81747 1.14298 -0.50821 1.81747 1.16026 -0.50821 
1.81747 1.19046 -0.50821 1.81747 1.24033 -0.50821 1.81747 1.31549 -0.50821 
1.81747 1.41446 -0.50821 1.81747 1.52391 -0.50821 1.81747 1.62391 -0.50821 
1.81747 1.12391 -0.49892 1.81747 1.12541 -0.49892 1.81747 1.12821 -0.49892 
1.81747 1.13342 -0.49892 1.81747 1.14298 -0.49892 1.81747 1.16026 -0.49892 
1.81747 1.19046 -0.49892 1.81747 1.24033 -0.49892 1.81747 1.31549 -0.49892 
1.81747 1.41446 -0.49892 1.81747 1.52391 -0.49892 1.81747 1.62391 -0.49892 
1.81747 1.12391 -0.488309 1.81747 1.12541 -0.488309 1.81747 1.12821 -0.488309 
1.81747 1.13342 -0.488309 1.81747 1.14298 -0.488309 1.81747 1.16026 -0.488309 
1.81747 1.19046 -0.488309 1.81747 1.24033 -0.488309 1.81747 1.31549 -0.488309 
1.81747 1.41446 -0.488309 1.81747 1.52391 -0.488309 1.81747 1.62391 -0.488309 
1.81747 1.12391 -0.476225 1.81747 1.12541 -0.476225 1.81747 1.12821 -0.476225 
1.81747 1.13342 -0.476225 1.81747 1.14298 -0.476225 1.81747 1.16026 -0.476225 
1.81747 1.19046 -0.476225 1.81747 1.24033 -0.476225 1.81747 1.31549 -0.476225 
1.81747 1.41446 -0.476225 1.81747 1.52391 -0.476225 1.81747 1.62391 -0.476225 
1.81747 1.12391 -0.462507 1.81747 1.12541 -0.462507 1.81747 1.12821 -0.462507 
1.81747 1.13342 -0.462507 1.81747 1.14298 -0.462507 1.81747 1.16026 -0.462507 
1.81747 1.19046 -0.462507 1.81747 1.24033 -0.462507 1.81747 1.31549 -0.462507 
1.81747 1.41446 -0.462507 1.81747 1.52391 -0.462507 1.81747 1.62391 -0.462507 
1.81747 1.12391 -0.44699 1.81747 1.12541 -0.44699 1.81747 1.12821 -0.44699 
1.81747 1.13342 -0.44699 1.81747 1.14298 -0.44699 1.81747 1.16026 -0.44699 
1.81747 1.19046 -0.44699 1.81747 1.24033 -0.44699 1.81747 1.31549 -0.44699 
1.81747 1.41446 -0.44699 1.81747 1.52391 -0.44699 1.81747 1.62391 -0.44699 
1.81747 1.12391 -0.429512 1.81747 1.12541 -0.429512 1.81747 1.12821 -0.429512 
1.81747 1.13342 -0.429512 1.81747 1.14298 -0.429512 1.81747 1.16026 -0.429512 
1.81747 1.19046 -0.429512 1.81747 1.24033 -0.429512 1.81747 1.31549 -0.429512 
1.81747 1.41446 -0.429512 1.81747 1.52391 -0.429512 1.81747 1.62391 -0.429512 
1.81747 1.12391 -0.409916 1.81747 1.12541 -0.409916 1.81747 1.12821 -0.409916 
1.81747 1.13342 -0.409916 1.81747 1.14298 -0.409916 1.81747 1.16026 -0.409916 
1.81747 1.19046 -0.409916 1.81747 1.24033 -0.409916 1.81747 1.31549 -0.409916 
1.81747 1.41446 -0.409916 1.81747 1.52391 -0.409916 1.81747 1.62391 -0.409916 
1.81747 1.12391 -0.38806 1.81747 1.12541 -0.38806 1.81747 1.12821 -0.38806 
1.81747 1.13342 -0.38806 1.81747 1.14298 -0.38806 1.81747 1.16026 -0.38806 
1.81747 1.19046 -0.38806 1.81747 1.24033 -0.388061 1.81747 1.31549 -0.388061 
1.81747 1.41446 -0.388061 1.81747 1.52391 -0.388061 1.81747 1.62391 -0.388061 
1.81747 1.12391 -0.363826 1.81747 1.12541 -0.363826 1.81747 1.12821 -0.363826 
1.81747 1.13342 -0.363826 1.81747 1.14298 -0.363826 1.81747 1.16026 -0.363826 
1.81747 1.19046 -0.363826 1.81747 1.24033 -0.363826 1.81747 1.31549 -0.363826 
1.81747 1.41446 -0.363826 1.81747 1.52391 -0.363826 1.81747 1.62391 -0.363826 
1.81747 1.12391 -0.337127 1.81747 1.12541 -0.337127 1.81747 1.12821 -0.337127 
1.81747 1.13342 -0.337127 1.81747 1.14298 -0.337127 1.81747 1.16026 -0.337127 
1.81747 1.19046 -0.337127 1.81747 1.24033 -0.337127 1.81747 1.31549 -0.337127 
1.81747 1.41446 -0.337127 1.81747 1.52391 -0.337127 1.81747 1.62391 -0.337127 
1.81747 1.12391 -0.307922 1.81747 1.12541 -0.307922 1.81747 1.12821 -0.307922 
1.81747 1.13342 -0.307922 1.81747 1.14298 -0.307922 1.81747 1.16026 -0.307922 
1.81747 1.19046 -0.307922 1.81747 1.24033 -0.307922 1.81747 1.31549 -0.307922 
1.81747 1.41446 -0.307922 1.81747 1.52391 -0.307922 1.81747 1.62391 -0.307922 
1.81747 1.12391 -0.276222 1.81747 1.12541 -0.276222 1.81747 1.12821 -0.276222 
1.81747 1.13342 -0.276222 1.81747 1.14298 -0.276222 1.81747 1.16026 -0.276222 
1.81747 1.19046 -0.276222 1.81747 1.24033 -0.276222 1.81747 1.31549 -0.276222 
1.81747 1.41446 -0.276222 1.81747 1.52391 -0.276222 1.81747 1.62391 -0.276223 
1.81747 1.12391 -0.242105 1.81747 1.12541 -0.242105 1.81747 1.12821 -0.242105 
1.81747 1.13342 -0.242105 1.81747 1.14298 -0.242105 1.81747 1.16026 -0.242105 
1.81747 1.19046 -0.242105 1.81747 1.24033 -0.242105 1.81747 1.31549 -0.242105 
1.81747 1.41446 -0.242105 1.81747 1.52391 -0.242105 1.81747 1.62391 -0.242105 
1.81747 1.12391 -0.205717 1.81747 1.12541 -0.205717 1.81747 1.12821 -0.205717 
1.81747 1.13342 -0.205717 1.81747 1.14298 -0.205717 1.81747 1.16026 -0.205717 
1.81747 1.19046 -0.205717 1.81747 1.24033 -0.205717 1.81747 1.31549 -0.205718 
1.81747 1.41446 -0.205718 1.81747 1.52391 -0.205718 1.81747 1.62391 -0.205718 
1.81747 1.12391 -0.167283 1.81747 1.12541 -0.167283 1.81747 1.12821 -0.167283 
1.81747 1.13342 -0.167283 1.81747 1.14298 -0.167283 1.81747 1.16026 -0.167283 
1.81747 1.19046 -0.167283 1.81747 1.24033 -0.167283 1.81747 1.31549 -0.167283 
1.81747 1.41446 -0.167283 1.81747 1.52391 -0.167283 1.81747 1.62391 -0.167283 
1.81747 1.12391 -0.127099 1.81747 1.12541 -0.127099 1.81747 1.12821 -0.127099 
1.81747 1.13342 -0.127099 1.81747 1.14298 -0.127099 1.81747 1.16026 -0.127099 
1.81747 1.19046 -0.127099 1.81747 1.24033 -0.127099 1.81747 1.31549 -0.127099 
1.81747 1.41446 -0.127099 1.81747 1.52391 -0.127099 1.81747 1.62391 -0.127099 
1.81747 1.12391 -0.0855334 1.81747 1.12541 -0.0855334 1.81747 1.12821 -0.0855334 
1.81747 1.13342 -0.0855334 1.81747 1.14298 -0.0855334 1.81747 1.16026 -0.0855334 
1.81747 1.19046 -0.0855334 1.81747 1.24033 -0.0855334 1.81747 1.31549 -0.0855335 
1.81747 1.41446 -0.0855335 1.81747 1.52391 -0.0855336 1.81747 1.62391 -0.0855336 
1.81747 1.12391 -0.0430113 1.81747 1.12541 -0.0430113 1.81747 1.12821 -0.0430113 
1.81747 1.13342 -0.0430113 1.81747 1.14298 -0.0430113 1.81747 1.16026 -0.0430113 
1.81747 1.19046 -0.0430113 1.81747 1.24033 -0.0430113 1.81747 1.31549 -0.0430113 
1.81747 1.41446 -0.0430114 1.81747 1.52391 -0.0430114 1.81747 1.62391 -0.0430115 
1.81747 1.12391 8.94319e-08 1.81747 1.12541 8.88953e-08 1.81747 1.12821 8.78932e-08 
1.81747 1.13342 8.6032e-08 1.81747 1.14298 8.26093e-08 1.81747 1.16026 7.64286e-08 
1.81747 1.19046 6.56268e-08 1.81747 1.24033 4.77857e-08 1.81747 1.31549 2.08979e-08 
1.81747 1.41446 -1.45037e-08 1.81747 1.52391 -5.3659e-08 1.81747 1.62391 -8.94317e-08 
1.81747 1.12391 0.0430115 1.81747 1.12541 0.0430115 1.81747 1.12821 0.0430115 
1.81747 1.13342 0.0430115 1.81747 1.14298 0.0430115 1.81747 1.16026 0.0430115 
1.81747 1.19046 0.0430114 1.81747 1.24033 0.0430114 1.81747 1.31549 0.0430114 
1.81747 1.41446 0.0430114 1.81747 1.52391 0.0430113 1.81747 1.62391 0.0430113 
1.81747 1.12391 0.0855336 1.81747 1.12541 0.0855336 1.81747 1.12821 0.0855336 
1.81747 1.13342 0.0855336 1.81747 1.14298 0.0855336 1.81747 1.16026 0.0855336 
1.81747 1.19046 0.0855336 1.81747 1.24033 0.0855336 1.81747 1.31549 0.0855335 
1.81747 1.41446 0.0855335 1.81747 1.52391 0.0855334 1.81747 1.62391 0.0855334 
1.81747 1.12391 0.127099 1.81747 1.12541 0.127099 1.81747 1.12821 0.127099 
1.81747 1.13342 0.127099 1.81747 1.14298 0.127099 1.81747 1.16026 0.127099 
1.81747 1.19046 0.127099 1.81747 1.24033 0.127099 1.81747 1.31549 0.127099 
1.81747 1.41446 0.127099 1.81747 1.52391 0.127099 1.81747 1.62391 0.127099 
1.81747 1.12391 0.167283 1.81747 1.12541 0.167283 1.81747 1.12821 0.167283 
1.81747 1.13342 0.167283 1.81747 1.14298 0.167283 1.81747 1.16026 0.167283 
[...]
POINT_DATA 7920
FIELD FieldData 5
pressure 1 7920 float
0.241147 0.268087 0.297946 0.316975 0.329197 0.33886 0.345399 0.351107 0.347519 
0.270009 0.186984 0.178967 0.311643 0.311643 0.316935 0.323389 0.332466 0.340746 
0.346898 0.352234 0.348443 0.272419 0.18746 0.178991 0.321245 0.321245 0.32546 
0.32849 0.335663 0.342736 0.348412 0.353571 0.349588 0.274634 0.18788 0.179012 
0.33045 0.33045 0.333054 0.333739 0.339045 0.344795 0.349979 0.354958 0.350764 
0.277235 0.188444 0.179044 0.334637 0.334637 0.337493 0.337555 0.342188 0.347065 
0.351656 0.356487 0.352148 0.280096 0.189094 0.179078 0.338498 0.338498 0.341284 
0.341579 0.345267 0.349412 0.353423 0.358052 0.353661 0.283457 0.189862 0.179123 
0.341785 0.341785 0.344631 0.345364 0.348431 0.351935 0.355305 0.359664 0.355326 
0.287253 0.190785 0.179172 0.345102 0.345102 0.347741 0.349032 0.351717 0.354596 
0.357349 0.361227 0.357132 0.291668 0.191864 0.179236 0.348799 0.348799 0.351367 
0.352532 0.355169 0.357412 0.35958 0.36279 0.359021 0.296699 0.193165 0.179306 
0.352251 0.352251 0.354668 0.355954 0.35868 0.360581 0.362134 0.36432 0.361009 
0.302469 0.194698 0.179398 0.356037 0.356037 0.358354 0.35969 0.362299 0.364194 
0.365138 0.366052 0.362992 0.308935 0.196548 0.179501 0.360156 0.360156 0.362485 
0.363805 0.366274 0.368361 0.368618 0.368184 0.365219 0.316062 0.198748 0.179631 
0.364419 0.364419 0.366789 0.368148 0.370766 0.373017 0.372679 0.371068 0.367737 
0.323767 0.201432 0.179777 0.368891 0.368891 0.371263 0.37267 0.375668 0.37796 
0.377322 0.374703 0.370827 0.33205 0.204689 0.17996 0.373276 0.373276 0.37567 
0.377132 0.380504 0.382966 0.38238 0.379147 0.374511 0.340658 0.208649 0.180168 
0.377689 0.377689 0.380073 0.381591 0.38521 0.387816 0.38749 0.384115 0.378842 
0.349353 0.213337 0.180421 0.382043 0.382043 0.384431 0.385993 0.389675 0.392415 
0.392416 0.389256 0.383574 0.358126 0.218824 0.180706 0.386374 0.386374 0.388713 
0.390302 0.394014 0.396779 0.397061 0.394179 0.388615 0.367221 0.225074 0.181037 
0.39096 0.39096 0.393277 0.39491 0.398555 0.401381 0.4018 0.399313 0.394033 
0.376528 0.231976 0.181399 0.396613 0.396613 0.398955 0.400628 0.404231 0.40701 
0.407458 0.405234 0.400393 0.38573 0.239245 0.181802 0.403713 0.403713 0.406071 
0.407759 0.411343 0.414011 0.414416 0.412337 0.407778 0.39507 0.246548 0.182221 
0.411501 0.411501 0.413863 0.415587 0.419308 0.421872 0.422323 0.420114 0.415725 
0.404435 0.253544 0.182642 0.418706 0.418706 0.4211 0.422915 0.426797 0.429439 
0.430134 0.427865 0.423432 0.413346 0.260075 0.183037 0.425095 0.425095 0.427539 
0.429434 0.433487 0.436199 0.437218 0.434991 0.43072 0.421567 0.265901 0.18339 
0.431042 0.431042 0.433506 0.435457 0.439611 0.442471 0.4438 0.441722 0.437607 
0.429198 0.270747 0.183661 0.436629 0.436629 0.439211 0.44123 0.445594 0.448564 
0.450188 0.448184 0.444142 0.4361 0.274318 0.183839 0.441378 0.441378 0.443984 
0.44609 0.450667 0.453907 0.455804 0.453924 0.449779 0.441814 0.276472 0.183919 
0.443986 0.443986 0.446712 0.448907 0.453739 0.457136 0.459212 0.457451 0.453245 
0.444923 0.27733 0.183949 0.443955 0.443955 0.446621 0.448791 0.453561 0.457032 
0.459102 0.457377 0.453151 0.444864 0.277339 0.183947 0.441172 0.441172 0.443819 
0.44591 0.45049 0.453704 0.455569 0.453751 0.44967 0.441685 0.276475 0.183925 
0.436533 0.436533 0.439046 0.441046 0.445355 0.448389 0.449995 0.448077 0.44404 
0.43609 0.274352 0.183838 0.430976 0.430976 0.433474 0.435428 0.439598 0.442412 
0.443749 0.44168 0.437584 0.429213 0.270766 0.183663 0.425167 0.425167 0.427578 
0.429472 0.433499 0.436228 0.437232 0.435022 0.430787 0.421651 0.2659 0.183384 
0.41885 0.41885 0.421243 0.423053 0.426944 0.429516 0.430205 0.427893 0.423656 
0.413494 0.260048 0.183032 0.411586 0.411586 0.413964 0.415705 0.41939 0.421939 
0.422427 0.420218 0.415839 0.40461 0.253529 0.182632 0.403799 0.403799 0.406145 
0.407832 0.411422 0.414036 0.414458 0.412263 0.407751 0.395128 0.246499 0.182215 
0.396581 0.396581 0.398902 0.400554 0.404087 0.406838 0.407239 0.405013 0.400232 
0.385666 0.23919 0.18179 0.39075 0.39075 0.393058 0.394668 0.398262 0.401043 
0.401444 0.399005 0.393975 0.376336 0.231859 0.181392 0.386133 0.386133 0.388461 
0.390032 0.393683 0.396492 0.39682 0.394137 0.388653 0.367002 0.224922 0.181024 
0.381949 0.381949 0.384316 0.385859 0.389537 0.392319 0.392424 0.38944 0.383789 
0.357915 0.218617 0.180699 0.377752 0.377752 0.380162 0.381661 0.385228 0.387937 
0.387723 0.384497 0.378994 0.34916 0.213147 0.180406 0.373499 0.373499 0.375879 
0.377333 0.380683 0.383165 0.38265 0.379447 0.37464 0.34051 0.208456 0.180161 
0.368999 0.368999 0.371395 0.372798 0.375774 0.378085 0.377499 0.374929 0.370915 
0.331886 0.204536 0.179945 0.364478 0.364478 0.366814 0.368157 0.370776 0.373019 
0.372772 0.371257 0.367832 0.323575 0.201271 0.17977 0.360164 0.360164 0.362443 
0.363734 0.366191 0.368328 0.368767 0.368433 0.365179 0.315783 0.198609 0.179617 
0.356057 0.356057 0.358361 0.359664 0.362329 0.364246 0.365399 0.366188 0.362909 
0.308601 0.196392 0.179495 0.352392 0.352392 0.354817 0.356101 0.35885 0.360809 
0.36255 0.364329 0.360723 0.302058 0.194562 0.179386 0.349248 0.349248 0.351766 
0.352978 0.355592 0.35792 0.360078 0.362519 0.358702 0.296285 0.193016 0.179302 
0.345912 0.345912 0.34863 0.349769 0.352445 0.35525 0.35781 0.36081 0.356802 
0.291216 0.191737 0.179226 0.342724 0.342724 0.345572 0.346371 0.349333 0.352658 
0.355688 0.359117 0.355117 0.286837 0.190644 0.179167 0.339448 0.339448 0.342196 
0.342612 0.346247 0.350089 0.353633 0.357547 0.353611 0.282995 0.189741 0.179115 
0.335727 0.335727 0.33852 0.338521 0.343156 0.347638 0.351702 0.356034 0.352289 
0.279666 0.188956 0.179074 0.331238 0.331238 0.334012 0.334738 0.339907 0.345243 
0.349825 0.354697 0.351084 0.276734 0.188325 0.179037 0.322376 0.322376 0.326565 
0.329486 0.336432 0.343007 0.348143 0.35344 0.350059 0.274166 0.187749 0.179007 
0.312725 0.312725 0.317963 0.324333 0.333079 0.340911 0.346466 0.352295 0.349033 
0.271924 0.187344 0.178985 0.213351 0.212265 0.216858 0.247778 0.299664 0.332118 
0.344048 0.350339 0.348647 0.281286 0.189734 0.179146 0.156442 0.156442 0.18518 
0.238461 0.299572 0.333375 0.34557 0.351467 0.349471 0.283585 0.190309 0.17918 
0.144475 0.144475 0.178481 0.236347 0.300816 0.335043 0.347146 0.352804 0.350465 
0.285787 0.190811 0.179207 0.146655 0.146655 0.18117 0.237383 0.302641 0.336866 
0.348835 0.354289 0.351513 0.288374 0.1915 0.179249 0.152612 0.152612 0.184319 
0.239782 0.304437 0.338673 0.350583 0.355942 0.352806 0.291264 0.192279 0.179295 
0.155203 0.155203 0.185769 0.241526 0.306085 0.340396 0.352419 0.357713 0.354311 
0.294598 0.193209 0.179352 0.156352 0.156352 0.186671 0.243309 0.307627 0.342735 
0.354332 0.359543 0.35604 0.29837 0.194314 0.179417 0.158627 0.158627 0.188562 
0.245294 0.309415 0.345253 0.356363 0.361368 0.35797 0.302701 0.19561 0.179498 
0.16104 0.16104 0.190834 0.247325 0.311699 0.347702 0.358454 0.363174 0.360025 
0.307608 0.19718 0.17959 0.162546 0.162546 0.192228 0.248989 0.314071 0.350358 
0.360763 0.364905 0.362116 0.313176 0.199041 0.179707 0.162906 0.162906 0.192733 
0.250175 0.316272 0.353372 0.363429 0.366669 0.364161 0.31935 0.201325 0.179839 
0.162915 0.162915 0.192912 0.251073 0.318502 0.356929 0.366546 0.368562 0.366348 
0.326073 0.204075 0.180007 0.164562 0.164562 0.194683 0.25294 0.321238 0.360864 
0.370247 0.370998 0.368817 0.333194 0.207483 0.1802 0.166594 0.166594 0.196726 
0.25507 0.324385 0.365075 0.374667 0.374178 0.371819 0.34076 0.211595 0.180441 
0.168653 0.168653 0.198761 0.257148 0.327631 0.369542 0.37964 0.37825 0.375372 
0.34867 0.21652 0.180712 0.170782 0.170782 0.200957 0.259521 0.330802 0.374155 
0.38485 0.383095 0.379499 0.356692 0.222181 0.18104 0.172944 0.172944 0.203283 
0.262073 0.333972 0.378557 0.38991 0.388394 0.384097 0.364711 0.228624 0.181413 
0.174917 0.174917 0.205444 0.264576 0.336853 0.38254 0.394611 0.393489 0.389143 
0.372964 0.235799 0.181867 0.176943 0.176943 0.207615 0.267142 0.339766 0.38637 
0.399003 0.398548 0.394607 0.381488 0.243655 0.182389 0.179439 0.179439 0.210259 
0.270175 0.343099 0.390835 0.404049 0.404096 0.40079 0.390013 0.251898 0.183 
0.182628 0.182628 0.213583 0.273836 0.347499 0.396431 0.410252 0.410763 0.407867 
0.398713 0.260218 0.183649 0.186124 0.186124 0.217171 0.277883 0.35232 0.402829 
0.41763 0.418235 0.415565 0.407555 0.268239 0.184319 0.189423 0.189423 0.220513 
0.281579 0.357076 0.40903 0.425101 0.42588 0.423214 0.416053 0.275795 0.184952 
0.192283 0.192283 0.223422 0.28496 0.361088 0.414524 0.431957 0.432991 0.430518 
0.424015 0.282598 0.185532 0.195137 0.195137 0.22628 0.288046 0.364941 0.419499 
0.438186 0.439624 0.437362 0.431678 0.288399 0.185983 0.198017 0.198017 0.229138 
0.291181 0.368526 0.424313 0.444172 0.445889 0.443808 0.438811 0.292892 0.186296 
0.200772 0.200772 0.231786 0.293972 0.371756 0.428523 0.44938 0.451397 0.449284 
0.44485 0.295852 0.186444 0.202359 0.202359 0.233301 0.295615 0.373616 0.431111 
0.452625 0.454759 0.452608 0.448338 0.297167 0.186501 0.202571 0.202571 0.233336 
0.295754 0.373535 0.430967 0.452506 0.454718 0.452557 0.448279 0.297161 0.186497 
0.200736 0.200736 0.231714 0.293822 0.371545 0.428372 0.449209 0.451242 0.449226 
0.444746 0.295835 0.186455 0.197971 0.197971 0.229076 0.29102 0.36843 0.424172 
0.443972 0.445787 0.443708 0.438778 0.292929 0.186294 0.19508 0.19508 0.226295 
0.288119 0.364882 0.419484 0.438138 0.439572 0.437332 0.431598 0.288422 0.185992 
0.192389 0.192389 0.223533 0.28498 0.36123 0.414507 0.431942 0.432998 0.430524 
0.424071 0.282617 0.185524 0.18951 0.18951 0.220663 0.281828 0.357134 0.409088 
0.425185 0.425891 0.423335 0.416139 0.275787 0.184953 0.186321 0.186321 0.217446 
0.278219 0.352686 0.402923 0.417681 0.418282 0.415542 0.407587 0.268256 0.184307 
0.18274 0.18274 0.213751 0.274114 0.347611 0.396454 0.410242 0.410585 0.407696 
0.398671 0.26018 0.183647 0.179418 0.179418 0.210261 0.270191 0.343124 0.390626 
0.403709 0.403802 0.400574 0.389875 0.251845 0.182986 0.176802 0.176802 0.207481 
0.267011 0.339437 0.385989 0.398636 0.398254 0.394558 0.381284 0.243507 0.182385 
0.174776 0.174776 0.205295 0.264415 0.336676 0.382286 0.394348 0.393546 0.389276 
0.37277 0.235617 0.181849 0.172905 0.172905 0.203236 0.262057 0.333866 0.378549 
0.390001 0.388645 0.384332 0.364551 0.228389 0.181406 0.170903 0.170903 0.201062 
0.259713 0.331037 0.37434 0.385096 0.383497 0.379637 0.356571 0.221975 0.181021 
0.168876 0.168876 0.198946 0.257489 0.32794 0.369781 0.379922 0.378515 0.375478 
0.348571 0.216303 0.180704 0.166908 0.166908 0.196963 0.255369 0.324781 0.365188 
0.37482 0.374368 0.371864 0.340608 0.211428 0.180423 0.164952 0.164952 0.19499 
0.253339 0.321531 0.360884 0.370389 0.371187 0.368811 0.33299 0.207296 0.180193 
0.163475 0.163475 0.19342 0.251495 0.318916 0.356994 0.366787 0.36875 0.366226 
0.325807 0.203921 0.179991 0.163773 0.163773 0.193531 0.250668 0.316794 0.35362 
0.363805 0.366685 0.363976 0.319069 0.201131 0.179832 0.16374 0.16374 0.193276 
0.249646 0.314837 0.350783 0.361263 0.364791 0.36182 0.312832 0.198879 0.179693 
0.162328 0.162328 0.192039 0.248127 0.312552 0.348335 0.358985 0.362865 0.359761 
0.307267 0.196998 0.179583 0.159651 0.159651 0.189539 0.246134 0.310453 0.345927 
0.356758 0.361002 0.357825 0.302332 0.195459 0.179487 0.157166 0.157166 0.187461 
0.244117 0.308552 0.343381 0.354578 0.359195 0.356119 0.298015 0.194145 0.17941 
0.156162 0.156162 0.186788 0.242345 0.307022 0.340941 0.352438 0.357484 0.354621 
0.294213 0.193059 0.179343 0.153507 0.153507 0.185267 0.240742 0.3053 0.339112 
0.350469 0.355874 0.353337 0.290879 0.192118 0.179288 0.147891 0.147891 0.18219 
0.238355 0.303406 0.33717 0.348566 0.35438 0.352189 0.28798 0.191353 0.179241 
0.145214 0.145214 0.179358 0.23721 0.301382 0.335203 0.346808 0.353044 0.35122 
0.28539 0.190661 0.179199 0.157319 0.157319 0.185981 0.239163 0.299944 0.333424 
0.345117 0.351755 0.350235 0.283206 0.190163 0.179172 0.221006 0.220539 0.215078 
0.213411 0.238434 0.303959 0.338244 0.348982 0.349428 0.294076 0.19373 0.179428 
0.19417 0.19417 0.187834 0.193223 0.228533 0.30306 0.339512 0.350086 0.350235 
0.296316 0.194429 0.179474 0.171824 0.171824 0.167919 0.17723 0.222823 0.303011 
0.340897 0.351364 0.351176 0.298438 0.195053 0.179513 0.149096 0.149096 0.148742 
0.165571 0.220981 0.30343 0.342563 0.352767 0.352126 0.300973 0.195899 0.179571 
0.145053 0.145053 0.148271 0.163455 0.222392 0.304328 0.344298 0.354401 0.353319 
0.303802 0.196855 0.179635 0.146748 0.146748 0.148876 0.165383 0.224099 0.305511 
0.346022 0.356229 0.354742 0.307028 0.198024 0.179714 0.149245 0.149245 0.151102 
0.166611 0.224796 0.306389 0.347683 0.358192 0.356447 0.310645 0.199414 0.179807 
0.149947 0.149947 0.151419 0.167262 0.225235 0.307373 0.349468 0.360211 0.358424 
0.314697 0.201088 0.179919 0.149882 0.149882 0.150886 0.168663 0.225749 0.308753 
0.351342 0.362199 0.36059 0.31925 0.203106 0.18005 0.151859 0.151859 0.152773 
0.172223 0.22657 0.310249 0.353254 0.364064 0.362854 0.324327 0.205536 0.180209 
0.156031 0.156031 0.156804 0.175637 0.228424 0.311997 0.355417 0.365821 0.365062 
0.329914 0.208502 0.180395 0.159936 0.159936 0.160819 0.178783 0.230632 0.314082 
0.35797 0.367555 0.367292 0.335926 0.212087 0.180619 0.162666 0.162666 0.163503 
0.181 0.233229 0.316192 0.361014 0.369662 0.369696 0.342236 0.21642 0.180879 
0.165043 0.165043 0.165846 0.183295 0.235871 0.318468 0.364759 0.372451 0.372472 
0.348887 0.22154 0.181196 0.167535 0.167535 0.168311 0.185569 0.238525 0.321099 
0.369134 0.376127 0.375746 0.355977 0.227502 0.18157 0.170015 0.170015 0.170766 
0.187887 0.241154 0.324327 0.373895 0.380685 0.379729 0.363305 0.234205 0.182037 
0.172515 0.172515 0.173236 0.190212 0.243732 0.327707 0.378687 0.385923 0.384259 
0.370627 0.241631 0.182605 0.17495 0.17495 0.175629 0.19256 0.246022 0.330675 
0.383075 0.391138 0.389208 0.378058 0.249759 0.183313 0.177204 0.177204 0.177847 
0.194774 0.248144 0.333111 0.386892 0.396111 0.394488 0.385755 0.258558 0.184153 
0.179577 0.179577 0.180212 0.197193 0.250409 0.335664 0.3909 0.401238 0.400366 
0.393517 0.267749 0.185129 0.182491 0.182491 0.183135 0.200121 0.253357 0.338813 
0.395753 0.407249 0.407104 0.401478 0.276985 0.186169 0.186091 0.186091 0.186719 
0.203675 0.256796 0.3426 0.401675 0.414169 0.414606 0.409704 0.285932 0.187231 
0.189663 0.189663 0.190252 0.207179 0.260289 0.346377 0.407826 0.421442 0.422229 
0.417824 0.294441 0.188245 0.192905 0.192905 0.193455 0.210382 0.263315 0.349766 
0.413481 0.42832 0.429588 0.425509 0.302206 0.189175 0.195323 0.195323 0.195873 
0.212807 0.265999 0.352662 0.418533 0.4346 0.436376 0.432882 0.308983 0.189925 
0.197418 0.197418 0.197978 0.214947 0.268464 0.355445 0.42319 0.440357 0.442644 
0.439677 0.31446 0.190465 0.198784 0.198784 0.199384 0.216345 0.270712 0.357823 
0.427148 0.445227 0.447871 0.445572 0.318358 0.190759 0.199644 0.199644 0.200273 
0.21731 0.272035 0.359337 0.429583 0.448131 0.451042 0.449131 0.320289 0.190878 
0.199123 0.199123 0.199781 0.216653 0.271963 0.35919 0.4295 0.448111 0.451006 
0.449111 0.320273 0.190874 0.198594 0.198594 0.199195 0.21617 0.270514 0.357748 
0.427058 0.445126 0.447854 0.445493 0.31833 0.190769 0.1973 0.1973 0.197866 
0.214787 0.268365 0.355321 0.423053 0.440263 0.44254 0.439616 0.314486 0.190465 
0.195377 0.195377 0.195936 0.21287 0.265986 0.352691 0.418465 0.43456 0.436341 
0.432768 0.308997 0.189936 0.192762 0.192762 0.193325 0.210239 0.263369 0.349701 
0.413466 0.428291 0.429573 0.42558 0.302235 0.189169 0.189677 0.189677 0.190276 
0.207217 0.260366 0.346434 0.407859 0.421441 0.422316 0.417876 0.294447 0.188247 
0.185934 0.185934 0.186568 0.203553 0.257009 0.342727 0.401706 0.414137 0.414472 
0.409643 0.285954 0.187221 0.182417 0.182417 0.183058 0.200085 0.253439 0.338911 
0.395686 0.407001 0.406843 0.401319 0.276942 0.186167 0.179478 0.179478 0.18011 
0.197095 0.250429 0.335546 0.390543 0.400903 0.400171 0.393325 0.267662 0.185115 
0.177114 0.177114 0.177747 0.194672 0.247945 0.332885 0.386539 0.395891 0.394577 
0.385572 0.258371 0.184143 0.17491 0.17491 0.175581 0.192485 0.245918 0.330559 
0.38288 0.391277 0.389473 0.377925 0.249541 0.183289 0.172475 0.172475 0.173193 
0.190173 0.24365 0.327851 0.378822 0.386245 0.384532 0.370518 0.241385 0.182588 
0.169906 0.169906 0.170668 0.187872 0.241159 0.324543 0.374146 0.381051 0.379824 
0.363232 0.23398 0.182013 0.167278 0.167278 0.16807 0.185524 0.238403 0.321291 
0.369368 0.376333 0.375787 0.355877 0.227266 0.181556 0.164486 0.164486 0.165282 
0.183091 0.235626 0.318491 0.364921 0.372613 0.372455 0.348716 0.221328 0.181176 
0.16176 0.16176 0.162575 0.180654 0.232831 0.316248 0.361207 0.369838 0.369614 
0.34199 0.2162 0.180867 0.158819 0.158819 0.159669 0.178285 0.230375 0.314179 
0.358307 0.367687 0.367103 0.335691 0.211887 0.180602 0.15455 0.15455 0.155278 
0.175044 0.22822 0.312284 0.355879 0.365764 0.364812 0.329717 0.208277 0.180382 
0.15027 0.15027 0.151126 0.171313 0.226581 0.310703 0.3538 0.363853 0.36259 
0.32414 0.205325 0.180193 0.148349 0.148349 0.149266 0.168045 0.225911 0.309295 
0.351824 0.361855 0.36049 0.319062 0.202889 0.180038 0.149119 0.149119 0.150629 
0.16682 0.225564 0.307854 0.349755 0.359892 0.358556 0.314506 0.200885 0.179905 
0.148904 0.148904 0.150885 0.166515 0.22519 0.306809 0.347776 0.358002 0.356855 
0.310416 0.199212 0.179795 0.146546 0.146546 0.148804 0.165536 0.224559 0.305834 
0.345904 0.356228 0.355348 0.306777 0.197833 0.179702 0.144969 0.144969 0.148299 
0.163601 0.222679 0.304561 0.344083 0.354604 0.354044 0.30351 0.19667 0.179623 
0.149111 0.149111 0.148747 0.165762 0.221153 0.303525 0.342274 0.353104 0.352858 
0.300664 0.19572 0.179559 0.171957 0.171957 0.168094 0.177356 0.222962 0.303071 
0.340601 0.351789 0.351855 0.298091 0.194876 0.179502 0.194139 0.194139 0.187815 
0.193193 0.228617 0.303071 0.339151 0.350528 0.350826 0.295941 0.194253 0.179465 
0.200805 0.198343 0.201758 0.193023 0.195837 0.240436 0.318166 0.344944 0.351177 
0.308776 0.199922 0.17992 0.182419 0.182419 0.186083 0.179364 0.186322 0.236571 
0.318614 0.345905 0.351976 0.310866 0.200853 0.179986 0.178606 0.178606 0.176033 
0.1689 0.176909 0.233904 0.319078 0.346955 0.352888 0.312807 0.201715 0.18004 
0.159113 0.159113 0.156688 0.150517 0.164181 0.232711 0.320148 0.348086 0.353777 
0.31514 0.202845 0.180121 0.141082 0.141082 0.138664 0.135931 0.157081 0.233326 
0.32146 0.349469 0.354891 0.317687 0.20413 0.18021 0.131888 0.131888 0.130911 
0.131992 0.156379 0.235007 0.322982 0.351085 0.3562 0.320566 0.205699 0.180318 
0.13101 0.13101 0.130515 0.134593 0.159084 0.236111 0.324156 0.352932 0.357819 
0.323741 0.207552 0.180444 0.133955 0.133955 0.133691 0.138688 0.159844 0.236348 
0.325095 0.354881 0.359783 0.327239 0.209767 0.180595 0.136758 0.136758 0.136593 
0.141532 0.160094 0.23624 0.326148 0.356828 0.362056 0.331132 0.212374 0.180771 
0.137879 0.137879 0.137597 0.142129 0.160231 0.236463 0.3273 0.358724 0.364547 
0.33544 0.215471 0.180984 0.137694 0.137694 0.137391 0.141869 0.160395 0.236912 
0.328319 0.36052 0.36705 0.340199 0.219172 0.181239 0.138374 0.138374 0.138232 
0.142379 0.16097 0.238161 0.329614 0.362188 0.369436 0.345352 0.223598 0.181554 
0.140226 0.140226 0.140121 0.144223 0.162858 0.239646 0.33156 0.36394 0.371699 
0.350822 0.228799 0.181943 0.142662 0.142662 0.142547 0.146637 0.165219 0.241468 
0.33386 0.366122 0.374029 0.356553 0.234781 0.182431 0.145218 0.145218 0.145086 
0.149139 0.167652 0.243611 0.336659 0.369095 0.376658 0.362673 0.241603 0.183042 
0.147565 0.147565 0.147421 0.151461 0.169961 0.245994 0.340005 0.373012 0.380011 
0.369159 0.249226 0.18381 0.149569 0.149569 0.149413 0.153446 0.17216 0.248432 
0.343764 0.37781 0.384135 0.375733 0.257557 0.184756 0.151278 0.151278 0.151107 
0.155141 0.173999 0.250676 0.347258 0.382858 0.388837 0.382277 0.266561 0.185916 
0.152992 0.152992 0.152806 0.156855 0.175625 0.252381 0.349983 0.387565 0.393887 
0.38902 0.276258 0.187284 0.155171 0.155171 0.154979 0.159045 0.177558 0.254078 