# vtk DataFile Version 5.1
vtk output
ASCII
DATASET POLYDATA
POINTS 126 float
1.78287 1.11254 -0.54541 1.78538 1.11336 -0.548743 1.78796 1.11421 -0.552176 
1.7907 1.11511 -0.555815 1.79367 1.11609 -0.559765 1.79656 1.11704 -0.5636 
1.79697 1.11718 -0.564149 1.8007 1.1184 -0.569096 1.80496 1.1198 -0.574754 
1.80804 1.12081 -0.57885 1.80988 1.12141 -0.581291 1.8156 1.1233 -0.588899 
1.81747 1.12391 -0.59138 1.78373 1.11176 -0.545492 1.78622 1.1126 -0.548823 
1.78879 1.11346 -0.552256 1.79152 1.11437 -0.555892 1.79448 1.11537 -0.559841 
1.79678 1.11614 -0.562923 1.79776 1.11647 -0.564224 1.80146 1.11771 -0.569169 
1.8057 1.11913 -0.574824 1.80824 1.11998 -0.578225 1.81059 1.12077 -0.581359 
1.81629 1.12267 -0.588964 1.81766 1.12313 -0.59079 1.78492 1.11069 -0.545606 
1.7874 1.11153 -0.548937 1.78996 1.11241 -0.552367 1.79267 1.11333 -0.556002 
1.79562 1.11433 -0.559951 1.79711 1.11484 -0.56195 1.79889 1.11545 -0.564331 
1.80257 1.1167 -0.569274 1.80679 1.11814 -0.574928 1.80855 1.11874 -0.57729 
1.81166 1.1198 -0.581459 1.81733 1.12173 -0.589062 1.81795 1.12194 -0.58989 
1.81819 1.12095 -0.589143 1.78662 1.10915 -0.545768 1.78909 1.11 -0.549098 
1.79164 1.11088 -0.552529 1.79435 1.11182 -0.556163 1.79728 1.11283 -0.560111 
1.79758 1.11293 -0.56051 1.7977 1.11245 -0.56015 1.80054 1.11395 -0.564489 
1.80421 1.11522 -0.569431 1.80842 1.11667 -0.575083 1.80901 1.11687 -0.57588 
1.80925 1.11592 -0.575161 1.81327 1.11834 -0.581611 1.8184 1.12011 -0.58851 
1.78908 1.10692 -0.546004 1.79155 1.10778 -0.549333 1.7941 1.10866 -0.552763 
1.7968 1.1096 -0.556397 1.79828 1.11011 -0.55839 1.79887 1.10772 -0.556595 
1.79973 1.11061 -0.560344 1.80298 1.11174 -0.564722 1.80665 1.11301 -0.569662 
1.8097 1.11407 -0.57377 1.81085 1.11447 -0.575313 1.81569 1.11615 -0.581841 
1.81908 1.11732 -0.5864 1.79267 1.10367 -0.546347 1.79515 1.10453 -0.549677 
1.7977 1.10541 -0.553107 1.79931 1.10596 -0.55527 1.79995 1.10338 -0.553322 
1.8004 1.10634 -0.556741 1.80334 1.10735 -0.560688 1.80659 1.10847 -0.565065 
1.81027 1.10974 -0.570007 1.81073 1.1099 -0.57063 1.81091 1.10916 -0.570068 
1.81447 1.11119 -0.575656 1.81932 1.11287 -0.582182 1.82011 1.11314 -0.58325 
1.82042 1.11187 -0.582287 1.79792 1.09893 -0.546848 1.80041 1.09977 -0.550179 
1.80195 1.09528 -0.547234 1.80081 1.09991 -0.550718 1.80097 1.09926 -0.550233 
1.80297 1.10064 -0.553611 1.80568 1.10156 -0.557246 1.80863 1.10256 -0.561194 
1.8119 1.10367 -0.565573 1.81365 1.09803 -0.561673 1.81223 1.10378 -0.56601 
1.81236 1.10326 -0.565616 1.81559 1.10492 -0.570514 1.81982 1.10635 -0.576165 
1.82162 1.10696 -0.57858 1.82233 1.10408 -0.576403 1.80546 1.09211 -0.547569 
1.80798 1.09293 -0.550903 1.81057 1.09377 -0.554337 1.81331 1.09466 -0.557975 
1.81689 1.08487 -0.551755 1.81588 1.08897 -0.554845 1.81439 1.09501 -0.5594 
1.81481 1.09331 -0.558118 1.8163 1.09563 -0.561925 1.81961 1.0967 -0.566308 
1.82334 1.09791 -0.571251 1.8267 1.08622 -0.562918 1.82542 1.09144 -0.566862 
1.8238 1.09806 -0.57186 1.82398 1.09733 -0.571312 1.8161 1.08248 -0.548587 
1.81738 1.08287 -0.55025 1.81787 1.08089 -0.548755 1.81867 1.08326 -0.551925 
1.82131 1.08406 -0.555364 1.82411 1.0849 -0.559005 1.82991 1.07309 -0.553 
1.82891 1.07718 -0.55609 1.82682 1.08572 -0.56254 1.82785 1.08151 -0.559363 
1.83061 1.06937 -0.549974 1.83081 1.06942 -0.55023 1.83088 1.06912 -0.55 

POLYGONS 208 621
OFFSETS vtktypeint64
0 3 6 9 12 15 18 21 24 
27 30 33 36 39 42 45 48 51 
54 57 60 63 66 69 72 75 78 
81 84 87 90 93 96 99 102 105 
108 111 114 117 120 123 126 129 132 
135 138 141 144 147 150 153 156 159 
162 165 168 171 174 177 180 183 186 
189 192 195 198 201 204 207 210 213 
216 219 222 225 228 231 234 237 240 
243 246 249 252 255 258 261 264 267 
270 273 276 279 282 285 288 291 294 
297 300 303 306 309 312 315 318 321 
324 327 330 333 336 339 342 345 348 
351 354 357 360 363 366 369 372 375 
378 381 384 387 390 393 396 399 402 
405 408 411 414 417 420 423 426 429 
432 435 438 441 444 447 450 453 456 
459 462 465 468 471 474 477 480 483 
486 489 492 495 498 501 504 507 510 
513 516 519 522 525 528 531 534 537 
540 543 546 549 552 555 558 561 564 
567 570 573 576 579 582 585 588 591 
594 597 600 603 606 609 612 615 618 
621 
CONNECTIVITY vtktypeint64
1 14 0 0 14 13 2 15 1 
1 15 14 3 16 2 2 16 15 
4 17 3 3 17 16 17 4 5 
18 17 5 5 19 18 6 19 5 
7 20 6 6 20 19 8 21 7 
7 21 20 21 8 9 22 21 9 
9 23 22 10 23 9 11 24 10 
10 24 23 24 11 12 25 24 12 
14 27 13 13 27 26 15 28 14 
14 28 27 16 29 15 15 29 28 
17 30 16 16 30 29 30 17 18 
31 30 18 18 32 31 19 32 18 
20 33 19 19 33 32 21 34 20 
20 34 33 34 21 22 35 34 22 
22 36 35 23 36 22 24 37 23 
23 37 36 37 24 25 38 37 25 
27 41 26 26 41 40 28 42 27 
27 42 41 29 43 28 28 43 42 
30 44 29 29 44 43 44 30 31 
45 44 31 31 47 45 32 47 31 
33 48 32 32 48 47 34 49 33 
33 49 48 49 34 35 50 49 35 
35 52 50 36 52 35 39 53 52 
39 52 37 37 52 36 37 38 39 
41 55 40 40 55 54 42 56 41 
41 56 55 43 57 42 42 57 56 
46 58 57 46 57 44 44 57 43 
44 45 46 46 60 58 45 60 46 
45 47 60 47 61 60 48 62 47 
47 62 61 51 63 62 51 62 49 
49 62 48 49 50 51 51 64 63 
50 64 51 50 52 64 52 65 64 
65 52 53 66 65 53 55 68 54 
54 68 67 56 69 55 55 69 68 
59 70 69 59 69 57 57 69 56 
57 58 59 59 72 70 58 72 59 
58 60 72 60 73 72 61 74 60 
60 74 73 62 75 61 61 75 74 
75 62 63 76 75 63 63 78 76 
64 78 63 65 79 64 64 79 78 
79 65 66 80 79 66 68 83 67 
67 83 82 71 85 83 71 83 69 
69 83 68 69 70 71 71 87 85 
70 87 71 70 72 87 72 88 87 
73 89 72 72 89 88 74 90 73 
73 90 89 77 92 90 77 90 75 
75 90 74 75 76 77 77 94 92 
76 94 77 76 78 94 78 95 94 
81 96 95 81 95 79 79 95 78 
79 80 81 82 83 86 84 82 86 
83 85 86 86 98 84 99 98 86 
85 99 86 85 87 99 87 100 99 
88 101 87 87 101 100 91 104 101 
91 101 89 89 101 88 89 90 93 
91 89 93 90 92 93 91 106 104 
93 106 91 107 106 93 92 107 93 
92 94 107 94 108 107 97 111 108 
97 108 95 95 108 94 95 96 97 
102 114 113 102 113 99 99 113 98 
99 100 103 102 99 103 100 101 105 
103 100 105 101 104 105 102 116 114 
103 116 102 117 116 103 105 117 103 
118 117 105 109 121 118 106 109 118 
106 118 105 106 105 104 106 107 110 
109 106 110 107 108 112 110 107 112 
108 111 112 113 114 115 119 124 123 
116 119 123 116 123 115 116 115 114 
116 117 120 119 116 120 117 118 122 
120 117 122 118 121 122 123 124 125 

POINT_DATA 126
FIELD FieldData 5
pressure 1 126 float
0.317808 0.277274 0.285974 0.292922 0.297971 0.300684 0.301095 0.303329 0.304726 
0.305185 0.305445 0.305672 0.305645 0.247925 0.247424 0.276465 0.286762 0.294788 
0.297822 0.299155 0.301766 0.303252 0.303665 0.304028 0.304377 0.304385 0.265068 
0.264343 0.271308 0.282635 0.2924 0.294748 0.297641 0.300582 0.302353 0.302712 
0.303334 0.303829 0.303842 0.303131 0.267774 0.267169 0.268018 0.278372 0.287048 
0.287661 0.286407 0.293966 0.297841 0.300236 0.300408 0.29944 0.301654 0.30245 
0.26887 0.268214 0.269136 0.274334 0.278792 0.273553 0.283304 0.290466 0.295053 
0.297109 0.297877 0.299698 0.300422 0.270489 0.269762 0.26984 0.271676 0.271093 
0.273002 0.279628 0.286123 0.291176 0.291556 0.290745 0.294633 0.296975 0.297194 
0.296247 0.274009 0.273271 0.276104 0.273198 0.273563 0.272933 0.274646 0.278474 
0.283424 0.279594 0.283784 0.28336 0.287476 0.290729 0.291693 0.289606 0.278087 
0.277524 0.277845 0.278964 0.280712 0.279943 0.279405 0.279304 0.280188 0.282255 
0.284814 0.281987 0.282256 0.285064 0.284701 0.281837 0.281622 0.281653 0.281418 
0.282381 0.281881 0.280887 0.281273 0.282065 0.28125 0.281124 0.281108 0.281029 

velocity_u 1 126 float
0.632107 0.720171 0.806472 0.847406 0.855376 0.856908 0.857128 0.858124 0.858999 
0.859478 0.859782 0.860882 0.861404 0.593943 0.736263 0.81066 0.84897 0.857608 
0.858408 0.858757 0.859238 0.859874 0.86036 0.860836 0.862122 0.862484 0.547347 
0.703744 0.808971 0.850595 0.860676 0.860856 0.861117 0.861023 0.861226 0.861481 
0.861984 0.863125 0.863273 0.864022 0.521088 0.67895 0.796162 0.853146 0.866417 
0.866364 0.867353 0.865922 0.864629 0.863952 0.863962 0.865199 0.864102 0.864722 
0.520863 0.678557 0.783884 0.851413 0.861592 0.850922 0.871857 0.871473 0.869242 
0.868051 0.867633 0.867011 0.867071 0.539811 0.699898 0.784066 0.823279 0.793575 
0.85036 0.877658 0.878894 0.875815 0.875506 0.876686 0.873053 0.871447 0.871348 
0.872709 0.565397 0.728081 0.576415 0.740499 0.729847 0.806301 0.854691 0.88247 
0.885636 0.885819 0.885405 0.885966 0.883159 0.880035 0.879159 0.882308 0.586113 
0.752102 0.83873 0.869649 0.76858 0.850289 0.875957 0.871566 0.887714 0.891515 
0.889846 0.892681 0.893407 0.889571 0.890138 0.603325 0.687405 0.603381 0.772063 
0.86317 0.884979 0.77564 0.868549 0.892035 0.887508 0.606589 0.619678 0.606344 

velocity_v 1 126 float
0.200188 0.0909799 0.0640808 0.0643001 0.0669998 0.0714771 0.0720864 0.0763169 0.0786771 
0.0799141 0.0808608 0.0833589 0.0840033 0.0774749 0.0916139 0.0418995 0.0439725 0.0545505 
0.0610022 0.0636781 0.07061 0.0748491 0.0764436 0.078159 0.0816217 0.0822102 0.1184 
0.151398 0.0440893 0.0310465 0.0449095 0.0508343 0.0577738 0.066656 0.0721293 0.0734801 
0.0761727 0.080082 0.0803792 0.0786356 0.138726 0.180689 0.0701622 0.0231006 0.0314227 
0.0329574 0.0298975 0.0481532 0.0604164 0.0676092 0.0681844 0.0657747 0.0727812 0.0769611 
0.155084 0.202765 0.108169 0.0244573 0.023445 0.0340973 0.022336 0.0376907 0.0527474 
0.0595535 0.0622645 0.0686831 0.071819 0.168679 0.22005 0.141571 0.0821629 0.150032 
0.0413001 0.0194321 0.0298686 0.0440888 0.0452491 0.0436144 0.0553673 0.0631696 0.0640081 
0.0620886 0.171235 0.222345 0.160936 0.21292 0.220432 0.162157 0.0657241 0.0286083 
0.0301549 0.0427577 0.0310124 0.0309101 0.0404369 0.0504299 0.0530947 0.0503298 0.152273 
0.197351 0.157005 0.0851632 0.159773 0.143813 0.0729154 0.0857971 0.0503277 0.0426886 
0.045407 0.0695698 0.0520605 0.0458394 0.0460708 0.117663 0.134854 0.11276 0.152307 
0.129917 0.0898776 0.110793 0.113277 0.0725942 0.0883057 0.0759018 0.0775865 0.075445 

velocity_w 1 126 float
-0.298418 -0.33596 -0.297823 -0.254259 -0.222175 -0.203521 -0.200816 -0.185881 -0.175305 
-0.169747 -0.166495 -0.158867 -0.157056 0.0402406 -0.210673 -0.290559 -0.252789 -0.219636 
-0.204924 -0.19865 -0.184169 -0.173687 -0.169448 -0.165613 -0.158658 -0.157419 -0.0350746 
-0.127618 -0.237073 -0.242604 -0.216127 -0.206972 -0.195935 -0.182059 -0.171948 -0.169165 
-0.164375 -0.157861 -0.157328 -0.15704 -0.0556448 -0.101613 -0.186958 -0.217448 -0.207246 
-0.20577 -0.203904 -0.190725 -0.178096 -0.168928 -0.16808 -0.167233 -0.162223 -0.156924 
-0.063744 -0.0944797 -0.141842 -0.181363 -0.184513 -0.159687 -0.187616 -0.180309 -0.171493 
-0.166057 -0.164062 -0.158528 -0.155676 -0.0701694 -0.0938564 -0.115502 -0.131982 -0.106967 
-0.143454 -0.158613 -0.161066 -0.158943 -0.158577 -0.156663 -0.155742 -0.152496 -0.152037 
-0.150445 -0.0739467 -0.0968369 -0.0765389 -0.0965664 -0.0967799 -0.0953907 -0.108159 -0.124067 
-0.134132 -0.107366 -0.134636 -0.132685 -0.139836 -0.141957 -0.142052 -0.136163 -0.0789172 
-0.0959125 -0.0888873 -0.0882298 -0.0973284 -0.0904236 -0.0917391 -0.0884086 -0.098037 -0.108575 
-0.11722 -0.0910427 -0.102188 -0.117879 -0.116394 -0.079325 -0.088458 -0.0790155 -0.097567 
-0.0917457 -0.0888636 -0.0981777 -0.0950886 -0.0905078 -0.091151 -0.0766244 -0.0782976 -0.0765847 

temperature 1 126 float
0.248187 0.228441 0.214784 0.210638 0.211016 0.211506 0.211581 0.211828 0.211872 
0.211859 0.211875 0.211831 0.211759 0.266034 0.235985 0.218046 0.210717 0.21079 
0.211176 0.21135 0.211651 0.211695 0.21167 0.211673 0.211607 0.211553 0.273832 
0.245643 0.222597 0.211212 0.210691 0.210896 0.211157 0.211476 0.211543 0.211531 
0.21154 0.211471 0.211448 0.211307 0.277478 0.250597 0.227867 0.212664 0.209893 
0.209934 0.209878 0.210371 0.210846 0.211036 0.211045 0.210851 0.211157 0.211169 
0.275488 0.248477 0.231513 0.215181 0.212513 0.216373 0.209817 0.20976 0.210214 
0.210416 0.210506 0.21072 0.210767 0.272217 0.243762 0.23135 0.223045 0.229047 
0.217329 0.20997 0.208978 0.209321 0.209363 0.209216 0.209752 0.210065 0.210086 
0.20989 0.268662 0.238649 0.267458 0.236621 0.238423 0.225947 0.217189 0.210154 
0.208545 0.209664 0.208538 0.208499 0.208478 0.208832 0.20897 0.208494 0.266389 
0.235552 0.2192 0.213725 0.233961 0.216966 0.212208 0.213237 0.209413 0.207833 
0.207615 0.207985 0.207395 0.207633 0.207559 0.264938 0.24933 0.265036 0.233609 
0.21453 0.209956 0.234089 0.213517 0.208144 0.209192 0.265381 0.262988 0.265422 

