# vtk DataFile Version 5.1
vtk output
ASCII
DATASET STRUCTURED_GRID
DIMENSIONS 26 42 32
POINTS 34944 float
5.13954 0.245046 0.5 5.13955 0.248046 0.5 5.13956 0.251544 0.5 
5.13957 0.255616 0.5 5.13958 0.26035 0.5 5.1396 0.265846 0.5 
5.13962 0.272214 0.5 5.13964 0.279574 0.5 5.13966 0.288061 0.5 
5.13969 0.297816 0.5 5.13972 0.30899 0.5 5.13976 0.321739 0.5 
5.1398 0.336217 0.5 5.13984 0.352572 0.5 5.13989 0.37094 0.5 
5.13995 0.391428 0.5 5.14002 0.414112 0.5 5.14008 0.439017 0.5 
5.14016 0.466109 0.5 5.14024 0.495286 0.5 5.14033 0.526368 0.5 
5.14042 0.559096 0.5 5.14051 0.593138 0.5 5.14061 0.628095 0.5 
5.14071 0.663523 0.5 5.1408 0.698951 0.5 5.17987 0.239059 0.5 
5.17987 0.242059 0.5 5.17988 0.245558 0.5 5.17989 0.249633 0.5 
5.17991 0.254374 0.5 5.17992 0.25988 0.5 5.17994 0.266262 0.5 
5.17996 0.273642 0.5 5.17998 0.282156 0.5 5.18001 0.291947 0.5 
5.18004 0.303168 0.5 5.18007 0.315976 0.5 5.18011 0.330529 0.5 
5.18015 0.346978 0.5 5.1802 0.365459 0.5 5.18026 0.386085 0.5 
5.18032 0.40893 0.5 5.18039 0.434024 0.5 5.18046 0.461333 0.5 
5.18053 0.490755 0.5 5.18062 0.522107 0.5 5.1807 0.55513 0.5 
5.18079 0.589484 0.5 5.18088 0.624768 0.5 5.18098 0.660529 0.5 
5.18107 0.696291 0.5 5.22022 0.233068 0.5 5.22023 0.236068 0.5 
5.22024 0.239568 0.5 5.22025 0.243647 0.5 5.22026 0.248394 0.5 
5.22027 0.25391 0.5 5.22029 0.260305 0.5 5.22031 0.267706 0.5 
5.22033 0.276247 0.5 5.22035 0.286074 0.5 5.22038 0.297342 0.5 
5.22041 0.31021 0.5 5.22045 0.324838 0.5 5.22049 0.34138 0.5 
5.22054 0.359975 0.5 5.22059 0.380737 0.5 5.22065 0.403745 0.5 
5.22071 0.429028 0.5 5.22078 0.456554 0.5 5.22085 0.48622 0.5 
5.22093 0.517844 0.5 5.22101 0.55116 0.5 5.22109 0.585828 0.5 
5.22118 0.621439 0.5 5.22127 0.657534 0.5 5.22136 0.693629 0.5 
5.2606 0.227073 0.5 5.26061 0.230073 0.5 5.26061 0.233574 0.5 
5.26062 0.237657 0.5 5.26063 0.24241 0.5 5.26065 0.247936 0.5 
5.26066 0.254346 0.5 5.26068 0.261766 0.5 5.2607 0.270334 0.5 
5.26072 0.280197 0.5 5.26075 0.291512 0.5 5.26078 0.30444 0.5 
5.26081 0.319143 0.5 5.26085 0.335779 0.5 5.26089 0.354487 0.5 
5.26094 0.375387 0.5 5.26099 0.398557 0.5 5.26105 0.424029 0.5 
5.26112 0.451772 0.5 5.26118 0.481683 0.5 5.26125 0.513577 0.5 
5.26133 0.547189 0.5 5.26141 0.58217 0.5 5.26149 0.618107 0.5 
5.26157 0.654536 0.5 5.26166 0.690965 0.5 5.301 0.221074 0.5 
5.30101 0.224074 0.5 5.30101 0.227577 0.5 5.30102 0.231664 0.5 
5.30103 0.236423 0.5 5.30104 0.241958 0.5 5.30106 0.248382 0.5 
5.30107 0.255823 0.5 5.30109 0.264418 0.5 5.30111 0.274317 0.5 
5.30114 0.285679 0.5 5.30117 0.298667 0.5 5.3012 0.313445 0.5 
5.30123 0.330174 0.5 5.30127 0.348996 0.5 5.30131 0.370033 0.5 
5.30136 0.393365 0.5 5.30142 0.419027 0.5 5.30147 0.446987 0.5 
5.30154 0.477143 0.5 5.3016 0.509309 0.5 5.30167 0.543215 0.5 
5.30174 0.57851 0.5 5.30182 0.614774 0.5 5.3019 0.651537 0.5 
5.30197 0.6883 0.5 5.34142 0.215073 0.5 5.34143 0.218073 0.5 
5.34143 0.221577 0.5 5.34144 0.225667 0.5 5.34145 0.230433 0.5 
5.34146 0.235977 0.5 5.34148 0.242416 0.5 5.34149 0.249877 0.5 
5.34151 0.258499 0.5 5.34152 0.268434 0.5 5.34155 0.279843 0.5 
5.34157 0.29289 0.5 5.3416 0.307745 0.5 5.34163 0.324566 0.5 
5.34167 0.343503 0.5 5.3417 0.364676 0.5 5.34175 0.388171 0.5 
5.3418 0.414022 0.5 5.34185 0.4422 0.5 5.3419 0.472601 0.5 
5.34196 0.505038 0.5 5.34203 0.539239 0.5 5.34209 0.574847 0.5 
5.34216 0.611439 0.5 5.34223 0.648536 0.5 5.3423 0.685633 0.5 
5.38186 0.209068 0.5 5.38187 0.212068 0.5 5.38187 0.215575 0.5 
5.38188 0.219668 0.5 5.38189 0.22444 0.5 5.3819 0.229994 0.5 
5.38191 0.236447 0.5 5.38192 0.243928 0.5 5.38193 0.252577 0.5 
5.38195 0.262549 0.5 5.38197 0.274004 0.5 5.38199 0.287112 0.5 
5.38202 0.302041 0.5 5.38205 0.318956 0.5 5.38208 0.338007 0.5 
5.38211 0.359318 0.5 5.38215 0.382975 0.5 5.38219 0.409016 0.5 
5.38224 0.437411 0.5 5.38229 0.468057 0.5 5.38234 0.500766 0.5 
5.3824 0.535261 0.5 5.38245 0.571184 0.5 5.38251 0.608103 0.5 
5.38258 0.645534 0.5 5.38264 0.682965 0.5 5.42232 0.203062 0.5 
5.42232 0.206062 0.5 5.42233 0.20957 0.5 5.42233 0.213666 0.5 
5.42234 0.218445 0.5 5.42235 0.224009 0.5 5.42236 0.230476 0.5 
5.42237 0.237977 0.5 5.42238 0.246653 0.5 5.4224 0.256661 0.5 
5.42241 0.268163 0.5 5.42243 0.281331 0.5 5.42245 0.296335 0.5 
5.42247 0.313344 0.5 5.4225 0.332509 0.5 5.42253 0.353957 0.5 
5.42256 0.377777 0.5 5.4226 0.404007 0.5 5.42264 0.43262 0.5 
5.42268 0.463511 0.5 5.42273 0.496491 0.5 5.42278 0.531281 0.5 
5.42283 0.567518 0.5 5.42288 0.604765 0.5 5.42293 0.642531 0.5 
5.42298 0.680297 0.5 5.46279 0.197053 0.5 5.46279 0.200053 0.5 
5.4628 0.203563 0.5 5.4628 0.207663 0.5 5.46281 0.212447 0.5 
5.46281 0.218021 0.5 5.46282 0.224503 0.5 5.46283 0.232024 0.5 
5.46284 0.240728 0.5 5.46285 0.250771 0.5 5.46287 0.26232 0.5 
5.46288 0.275548 0.5 5.4629 0.290628 0.5 5.46292 0.30773 0.5 
5.46294 0.327009 0.5 5.46296 0.348594 0.5 5.46299 0.372577 0.5 
5.46302 0.398997 0.5 5.46305 0.427827 0.5 5.46309 0.458964 0.5 
5.46313 0.492216 0.5 5.46317 0.527301 0.5 5.46321 0.563852 0.5 
5.46325 0.601426 0.5 5.4633 0.639526 0.5 5.46334 0.677627 0.5 
5.50327 0.191043 0.5 5.50327 0.194043 0.5 5.50327 0.197554 0.5 
5.50328 0.201658 0.5 5.50328 0.206448 0.5 5.50329 0.212032 0.5 
5.50329 0.218528 0.5 5.5033 0.226069 0.5 5.50331 0.2348 0.5 
5.50332 0.24488 0.5 5.50333 0.256476 0.5 5.50334 0.269763 0.5 
5.50335 0.284919 0.5 5.50337 0.302115 0.5 5.50339 0.321508 0.5 
5.50341 0.34323 0.5 5.50343 0.367375 0.5 5.50345 0.393985 0.5 
5.50348 0.423033 0.5 5.50351 0.454416 0.5 5.50354 0.487939 0.5 
5.50357 0.523319 0.5 5.5036 0.560184 0.5 5.50363 0.598086 0.5 
5.50367 0.636521 0.5 5.5037 0.674957 0.5 5.54376 0.185032 0.5 
5.54376 0.188032 0.5 5.54376 0.191544 0.5 5.54376 0.195651 0.5 
5.54377 0.200448 0.5 5.54377 0.206042 0.5 5.54378 0.212552 0.5 
5.54378 0.220113 0.5 5.54379 0.228871 0.5 5.54379 0.238987 0.5 
5.5438 0.25063 0.5 5.54381 0.263978 0.5 5.54382 0.279209 0.5 
5.54383 0.296498 0.5 5.54384 0.316005 0.5 5.54386 0.337865 0.5 
5.54387 0.362173 0.5 5.54389 0.388972 0.5 5.54391 0.418238 0.5 
5.54393 0.449866 0.5 5.54395 0.483662 0.5 5.54397 0.519337 0.5 
5.54399 0.556516 0.5 5.54402 0.594746 0.5 5.54404 0.633515 0.5 
5.54407 0.672285 0.5 5.58425 0.179019 0.5 5.58425 0.182019 0.5 
5.58425 0.185533 0.5 5.58426 0.189644 0.5 5.58426 0.194447 0.5 
5.58426 0.200051 0.5 5.58426 0.206575 0.5 5.58427 0.214156 0.5 
5.58427 0.222942 0.5 5.58427 0.233094 0.5 5.58428 0.244784 0.5 
5.58428 0.258191 0.5 5.58429 0.273498 0.5 5.5843 0.290881 0.5 
5.5843 0.310502 0.5 5.58431 0.332499 0.5 5.58432 0.35697 0.5 
5.58433 0.383959 0.5 5.58434 0.413443 0.5 5.58435 0.445316 0.5 
5.58437 0.479383 0.5 5.58438 0.515354 0.5 5.5844 0.552847 0.5 
5.58441 0.591405 0.5 5.58443 0.630509 0.5 5.58444 0.669614 0.5 
5.62475 0.173006 0.5 5.62475 0.176007 0.5 5.62475 0.179522 0.5 
5.62475 0.183636 0.5 5.62475 0.188446 0.5 5.62475 0.194059 0.5 
5.62475 0.200598 0.5 5.62475 0.208199 0.5 5.62476 0.217012 0.5 
5.62476 0.2272 0.5 5.62476 0.238936 0.5 5.62476 0.252404 0.5 
5.62476 0.267786 0.5 5.62476 0.285262 0.5 5.62477 0.304998 0.5 
5.62477 0.327132 0.5 5.62477 0.351766 0.5 5.62478 0.378945 0.5 
5.62478 0.408647 0.5 5.62478 0.440766 0.5 5.62479 0.475104 0.5 
5.62479 0.51137 0.5 5.6248 0.549178 0.5 5.6248 0.588063 0.5 
5.62481 0.627503 0.5 5.62481 0.666943 0.5 5.66525 0.166993 0.5 
5.66525 0.169993 0.5 5.66525 0.17351 0.5 5.66525 0.177628 0.5 
5.66525 0.182444 0.5 5.66525 0.188067 0.5 5.66525 0.19462 0.5 
5.66524 0.202241 0.5 5.66524 0.211081 0.5 5.66524 0.221305 0.5 
5.66524 0.233089 0.5 5.66524 0.246617 0.5 5.66524 0.262075 0.5 
5.66524 0.279644 0.5 5.66523 0.299494 0.5 5.66523 0.321766 0.5 
5.66523 0.346562 0.5 5.66522 0.373931 0.5 5.66522 0.40385 0.5 
5.66521 0.436215 0.5 5.66521 0.470826 0.5 5.66521 0.507387 0.5 
5.6652 0.545509 0.5 5.6652 0.584722 0.5 5.66519 0.624496 0.5 
5.66519 0.664271 0.5 5.70575 0.160981 0.5 5.70575 0.163981 0.5 
5.70575 0.167499 0.5 5.70574 0.171621 0.5 5.70574 0.176443 0.5 
5.70574 0.182075 0.5 5.70574 0.188643 0.5 5.70573 0.196284 0.5 
5.70573 0.205151 0.5 5.70573 0.215411 0.5 5.70572 0.227242 0.5 
5.70572 0.24083 0.5 5.70571 0.256363 0.5 5.7057 0.274026 0.5 
5.7057 0.29399 0.5 5.70569 0.316399 0.5 5.70568 0.341358 0.5 
5.70567 0.368917 0.5 5.70566 0.399054 0.5 5.70565 0.431664 0.5 
5.70563 0.466547 0.5 5.70562 0.503403 0.5 5.7056 0.54184 0.5 
5.70559 0.581381 0.5 5.70558 0.62149 0.5 5.70556 0.661599 0.5 
5.74624 0.154968 0.5 5.74624 0.157968 0.5 5.74624 0.161488 0.5 
5.74624 0.165613 0.5 5.74623 0.170442 0.5 5.74623 0.176084 0.5 
5.74622 0.182666 0.5 5.74622 0.190327 0.5 5.74621 0.199222 0.5 
5.74621 0.209518 0.5 5.7462 0.221396 0.5 5.74619 0.235043 0.5 
5.74618 0.250652 0.5 5.74617 0.268409 0.5 5.74616 0.288487 0.5 
5.74614 0.311033 0.5 5.74613 0.336155 0.5 5.74611 0.363904 0.5 
5.74609 0.394259 0.5 5.74607 0.427114 0.5 5.74605 0.462269 0.5 
5.74603 0.49942 0.5 5.74601 0.538171 0.5 5.74598 0.57804 0.5 
5.74596 0.618484 0.5 5.74593 0.658928 0.5 5.78673 0.148957 0.5 
5.78673 0.151957 0.5 5.78672 0.155478 0.5 5.78672 0.159607 0.5 
5.78672 0.164441 0.5 5.78671 0.170094 0.5 5.78671 0.17669 0.5 
5.7867 0.184371 0.5 5.78669 0.193293 0.5 5.78668 0.203625 0.5 
5.78667 0.21555 0.5 5.78666 0.229258 0.5 5.78665 0.244942 0.5 
5.78663 0.262792 0.5 5.78661 0.282984 0.5 5.78659 0.305668 0.5 
5.78657 0.330953 0.5 5.78655 0.358891 0.5 5.78652 0.389464 0.5 
5.7865 0.422565 0.5 5.78647 0.457991 0.5 5.78643 0.495438 0.5 
5.7864 0.534503 0.5 5.78637 0.574699 0.5 5.78633 0.615478 0.5 
5.7863 0.656257 0.5 5.82721 0.142947 0.5 5.82721 0.145947 0.5 
5.8272 0.14947 0.5 5.8272 0.153602 0.5 5.82719 0.158443 0.5 
5.82719 0.164105 0.5 5.82718 0.170715 0.5 5.82717 0.178416 0.5 
5.82716 0.187365 0.5 5.82715 0.197734 0.5 5.82714 0.209706 0.5 
5.82712 0.223473 0.5 5.82711 0.239233 0.5 5.82709 0.257176 0.5 
5.82706 0.277483 0.5 5.82704 0.300304 0.5 5.82701 0.325751 0.5 
5.82698 0.353879 0.5 5.82695 0.38467 0.5 5.82691 0.418016 0.5 
5.82687 0.453714 0.5 5.82683 0.491456 0.5 5.82679 0.530835 0.5 
5.82675 0.57136 0.5 5.8267 0.612473 0.5 5.82666 0.653586 0.5 
[...]
POINT_DATA 34944
FIELD FieldData 5
pressure 1 34944 float
0.178573 0.133762 0.133784 0.133852 0.134012 0.134061 0.134286 0.134332 0.134576 
0.135159 0.136498 0.137981 0.139916 0.141707 0.143311 0.14385 0.143765 0.142361 
0.141356 0.140769 0.141914 0.143932 0.14683 0.150333 0.154054 0.158319 0.178573 
0.141131 0.141236 0.141295 0.141297 0.141364 0.141352 0.141457 0.141325 0.141878 
0.14224 0.143 0.143426 0.144272 0.144722 0.1447 0.144407 0.143777 0.142526 
0.141345 0.14086 0.141991 0.144819 0.148454 0.153018 0.157817 0.178573 0.143503 
0.143473 0.143533 0.143626 0.143728 0.143916 0.14408 0.144088 0.144124 0.144823 
0.146801 0.148612 0.150237 0.151206 0.151133 0.150184 0.148657 0.146386 0.143547 
0.141098 0.140299 0.141854 0.145 0.149457 0.153743 0.178573 0.146109 0.145885 
0.14598 0.145996 0.146087 0.146113 0.146286 0.146341 0.14614 0.146786 0.14805 
0.150923 0.153476 0.155834 0.156555 0.155716 0.153538 0.150359 0.146395 0.142397 
0.139616 0.139543 0.141538 0.145529 0.149096 0.178573 0.149764 0.149591 0.149605 
0.149517 0.149546 0.149541 0.149534 0.149618 0.149417 0.149535 0.150614 0.153067 
0.154955 0.157654 0.159193 0.159243 0.157262 0.153701 0.149171 0.144025 0.13981 
0.137886 0.138539 0.141606 0.14461 0.178573 0.154041 0.15396 0.153937 0.153914 
0.153832 0.153795 0.153739 0.153688 0.153643 0.153423 0.154155 0.155703 0.157264 
0.158928 0.160523 0.161052 0.15974 0.156389 0.151395 0.145875 0.140429 0.137021 
0.136251 0.137899 0.140304 0.178573 0.158765 0.158847 0.158809 0.158746 0.158764 
0.158598 0.158541 0.158329 0.158291 0.158089 0.158499 0.159232 0.160094 0.160963 
0.161686 0.162101 0.161228 0.158167 0.153173 0.147147 0.141367 0.13681 0.134562 
0.134655 0.136701 0.178573 0.163727 0.163829 0.163839 0.163776 0.163716 0.163599 
0.1635 0.163417 0.163202 0.163071 0.163016 0.163422 0.163748 0.163663 0.16365 
0.163534 0.162414 0.159727 0.154674 0.148467 0.141947 0.136994 0.133468 0.132718 
0.133969 0.178573 0.168445 0.168667 0.168656 0.168686 0.168597 0.168567 0.168451 
0.168407 0.168318 0.168009 0.167872 0.167641 0.167521 0.166778 0.166199 0.164925 
0.163382 0.16045 0.155892 0.149582 0.143379 0.137387 0.133705 0.131912 0.132881 
0.178573 0.172795 0.172976 0.173029 0.172974 0.173055 0.172999 0.172972 0.172999 
0.172954 0.17274 0.172179 0.171795 0.17087 0.169671 0.168212 0.16653 0.16399 
0.161246 0.156762 0.151459 0.144949 0.139454 0.134893 0.132882 0.132908 0.178573 
0.176408 0.176592 0.176625 0.176673 0.176637 0.176747 0.176734 0.176794 0.176913 
0.176675 0.176102 0.175174 0.173971 0.171907 0.169978 0.167481 0.164934 0.161701 
0.15793 0.153124 0.148076 0.142222 0.13762 0.134565 0.133997 0.178573 0.17936 
0.179531 0.179559 0.179555 0.179643 0.179655 0.17978 0.179779 0.179939 0.179995 
0.179219 0.178225 0.176579 0.174396 0.171672 0.168905 0.165878 0.16272 0.15935 
0.155809 0.151264 0.146299 0.140878 0.137393 0.135625 0.178573 0.18181 0.181882 
0.181935 0.181905 0.181939 0.181998 0.182041 0.182158 0.182219 0.182367 0.181878 
0.180646 0.179115 0.176607 0.173946 0.170903 0.167664 0.164666 0.16169 0.1585 
0.155035 0.149954 0.144452 0.139916 0.137465 0.178573 0.183739 0.183866 0.183838 
0.183845 0.183816 0.183847 0.183874 0.183931 0.183989 0.184105 0.183831 0.182829 
0.181323 0.179183 0.17662 0.173584 0.170559 0.167475 0.16469 0.16181 0.158226 
0.153639 0.148054 0.143412 0.139951 0.178573 0.185602 0.185588 0.185665 0.185491 
0.185521 0.185456 0.18547 0.185467 0.185472 0.185482 0.18552 0.184698 0.183465 
0.181633 0.17941 0.176893 0.173893 0.17106 0.167955 0.165022 0.161184 0.156955 
0.151407 0.146383 0.142754 0.178573 0.18725 0.187372 0.187277 0.187276 0.187136 
0.187095 0.186981 0.187002 0.186959 0.186897 0.186964 0.186455 0.185438 0.183936 
0.182211 0.179887 0.177234 0.174328 0.1712 0.16789 0.164123 0.15967 0.154747 
0.150083 0.145784 0.178573 0.189025 0.189061 0.188994 0.188862 0.188829 0.188673 
0.188643 0.188471 0.188451 0.18837 0.188509 0.188119 0.187259 0.186116 0.18439 
0.182275 0.179799 0.176801 0.173657 0.170208 0.166495 0.162549 0.158052 0.153557 
0.149403 0.178573 0.190649 0.190766 0.190732 0.190624 0.190506 0.190396 0.190185 
0.190204 0.190057 0.189889 0.189959 0.189815 0.188967 0.187781 0.186169 0.184128 
0.181385 0.178526 0.175091 0.171845 0.168284 0.164885 0.160959 0.156635 0.151867 
0.178573 0.192281 0.192381 0.192405 0.192249 0.192157 0.19199 0.191919 0.191677 
0.191635 0.191533 0.191496 0.191355 0.190643 0.189565 0.187799 0.185479 0.182873 
0.179627 0.176386 0.172986 0.169883 0.166636 0.163187 0.158976 0.154151 0.178573 
0.193767 0.19392 0.193938 0.193873 0.193794 0.193618 0.193407 0.193325 0.193172 
0.192962 0.192909 0.19294 0.192301 0.191149 0.189359 0.187101 0.184119 0.181015 
0.177521 0.174313 0.171076 0.168191 0.16468 0.16069 0.155804 0.178573 0.195228 
0.195366 0.195456 0.195302 0.195251 0.19514 0.195016 0.194828 0.194702 0.19459 
0.194339 0.194336 0.193906 0.192925 0.191148 0.188725 0.185862 0.182507 0.179016 
0.175664 0.172508 0.169284 0.166176 0.162262 0.157456 0.178573 0.196582 0.196748 
0.196785 0.196726 0.196677 0.196569 0.196398 0.196323 0.196209 0.196042 0.195884 
0.195787 0.195533 0.194545 0.192924 0.190724 0.187731 0.184447 0.180827 0.177268 
0.173981 0.170816 0.167277 0.164014 0.159363 0.178573 0.197945 0.198057 0.198143 
0.19801 0.197973 0.197897 0.197825 0.197695 0.19758 0.197502 0.19726 0.197291 
0.196934 0.196256 0.194855 0.192713 0.189966 0.186773 0.183072 0.179398 0.175724 
0.172364 0.169052 0.165763 0.161321 0.178573 0.199198 0.199352 0.199344 0.199309 
0.199248 0.199168 0.199056 0.199038 0.198937 0.198886 0.19866 0.198552 0.198447 
0.197793 0.196605 0.194918 0.192238 0.189316 0.185801 0.182082 0.177963 0.174445 
0.170771 0.167909 0.163815 0.178573 0.200517 0.200573 0.200641 0.200473 0.200449 
0.200355 0.200317 0.200215 0.200214 0.200105 0.200049 0.199752 0.199782 0.199275 
0.198484 0.196786 0.194718 0.191975 0.18867 0.184956 0.181024 0.176905 0.17313 
0.169981 0.166125 0.178573 0.201666 0.201818 0.201735 0.201729 0.201607 0.20154 
0.201424 0.201432 0.201338 0.201386 0.201191 0.201172 0.200934 0.200737 0.199919 
0.198855 0.196722 0.194585 0.191563 0.188134 0.184016 0.180038 0.175564 0.172419 
0.168532 0.178573 0.20291 0.202943 0.202952 0.202766 0.202743 0.202595 0.202589 
0.202492 0.202493 0.202396 0.20243 0.202171 0.202226 0.201886 0.20155 0.200295 
0.198957 0.19668 0.194237 0.191033 0.187317 0.183018 0.178501 0.174972 0.171015 
0.178573 0.20393 0.20409 0.20396 0.203965 0.203765 0.203733 0.20358 0.203574 
0.203459 0.203532 0.203381 0.203385 0.203102 0.203156 0.202595 0.201996 0.200356 
0.198819 0.196298 0.193506 0.190012 0.186061 0.181517 0.177526 0.173185 0.178573 
0.205031 0.205091 0.205042 0.204842 0.204822 0.204666 0.204576 0.204536 0.20449 
0.204405 0.204472 0.204275 0.204251 0.203997 0.20387 0.202972 0.201994 0.200038 
0.198206 0.195557 0.192189 0.188672 0.184344 0.180196 0.176361 0.178573 0.20589 
0.206042 0.205919 0.205913 0.205693 0.205596 0.20545 0.205368 0.205345 0.20543 
0.205268 0.205308 0.205055 0.205035 0.204633 0.20424 0.202844 0.201536 0.199281 
0.197175 0.194305 0.190847 0.187022 0.183297 0.179243 0.178573 0.206812 0.20685 
0.206891 0.206655 0.206547 0.206327 0.206261 0.206288 0.206207 0.206189 0.206277 
0.206073 0.206038 0.205743 0.205664 0.204965 0.204044 0.202269 0.200628 0.198291 
0.195783 0.193055 0.18964 0.18613 0.182093 0.178573 0.207568 0.207733 0.20763 
0.20762 0.207383 0.207249 0.207025 0.206975 0.207067 0.207072 0.206972 0.207035 
0.206771 0.206693 0.206327 0.206028 0.204736 0.203494 0.201402 0.199685 0.197361 
0.194699 0.192072 0.188785 0.184012 0.178573 0.208359 0.208422 0.208479 0.208281 
0.208081 0.207882 0.207831 0.207788 0.20771 0.207835 0.207908 0.207718 0.207683 
0.207365 0.207297 0.206721 0.205897 0.204282 0.2028 0.200732 0.198848 0.196776 
0.194145 0.191247 0.185996 0.178573 0.209051 0.209214 0.20914 0.2091 0.208862 
0.208755 0.208529 0.208495 0.208604 0.208569 0.208564 0.20865 0.208375 0.208301 
0.207935 0.207805 0.206711 0.205648 0.203811 0.202371 0.200518 0.19828 0.196306 
0.193164 0.187869 0.178573 0.209813 0.209879 0.209951 0.209733 0.209535 0.209386 
0.209335 0.209207 0.20915 0.209361 0.20937 0.209275 0.209269 0.208954 0.208918 
0.208512 0.207975 0.20663 0.205441 0.203625 0.202085 0.200177 0.198178 0.19535 
0.189839 0.178573 0.210421 0.210575 0.210535 0.210352 0.210177 0.210199 0.20993 
0.209906 0.209991 0.209962 0.210036 0.210129 0.209906 0.209858 0.209519 0.20961 
0.208831 0.208098 0.206611 0.205365 0.20372 0.201678 0.199875 0.19715 0.192209 
0.178573 0.211165 0.211241 0.211364 0.21113 0.21096 0.210796 0.21074 0.210543 
0.210503 0.210763 0.210702 0.210712 0.210739 0.210456 0.210471 0.210219 0.210066 
0.209048 0.208236 0.206556 0.205226 0.20332 0.201559 0.198969 0.194477 0.178573 
0.211796 0.211974 0.21185 0.211866 0.211645 0.211533 0.211292 0.211262 0.211163 
0.211192 0.211359 0.211383 0.211254 0.21122 0.2109 0.211173 0.210728 0.210359 
0.209232 0.208137 0.206535 0.204713 0.203041 0.200753 0.196849 0.178573 0.212534 
0.212521 0.212799 0.212463 0.212501 0.212195 0.211971 0.211833 0.211761 0.211935 
0.211775 0.211913 0.211869 0.211593 0.211584 0.211513 0.211711 0.211026 0.210585 
0.209023 0.207927 0.206157 0.204759 0.202743 0.199699 0.178573 0.21311 0.213256 
0.213265 0.213225 0.213057 0.212965 0.212649 0.212397 0.212598 0.212289 0.212462 
0.21231 0.212309 0.212205 0.212001 0.212239 0.212123 0.21206 0.211255 0.21038 
0.208916 0.207619 0.206299 0.204904 0.201852 0.178573 0.213549 0.213635 0.213743 
0.213548 0.213423 0.213079 0.212989 0.212662 0.212621 0.212358 0.212034 0.211834 
0.211643 0.21125 0.211387 0.211548 0.212296 0.212262 0.212277 0.211033 0.210341 
0.208933 0.208236 0.206649 0.20444 0.178573 0.212698 0.212651 0.212757 0.212462 
0.212083 0.211757 0.21113 0.210886 0.210254 0.210135 0.20943 0.209128 0.207978 
0.207398 0.206785 0.20795 0.209277 0.211227 0.211482 0.211318 0.210328 0.209969 
0.208607 0.207627 0.204834 0.133762 0.133762 0.133784 0.133852 0.134012 0.134061 
0.134286 0.134332 0.134576 0.135159 0.136498 0.137981 0.139916 0.141707 0.143311 
0.14385 0.143765 0.142361 0.141356 0.140769 0.141914 0.143932 0.14683 0.150333 
0.154054 0.158319 0.141131 0.141131 0.141236 0.141295 0.141297 0.141364 0.141352 
0.141457 0.141325 0.141878 0.14224 0.143 0.143426 0.144272 0.144722 0.1447 
0.144407 0.143777 0.142526 0.141345 0.14086 0.141991 0.144819 0.148454 0.153018 
0.157817 0.143503 0.143503 0.143473 0.143533 0.143626 0.143728 0.143916 0.14408 
0.144088 0.144124 0.144823 0.146801 0.148612 0.150237 0.151206 0.151133 0.150184 
0.148657 0.146386 0.143547 0.141098 0.140299 0.141854 0.145 0.149457 0.153743 
0.146109 0.146109 0.145885 0.14598 0.145996 0.146087 0.146113 0.146286 0.146341 
0.14614 0.146786 0.14805 0.150923 0.153476 0.155834 0.156555 0.155716 0.153538 
0.150359 0.146395 0.142397 0.139616 0.139543 0.141538 0.145529 0.149096 0.149764 
0.149764 0.149591 0.149605 0.149517 0.149546 0.149541 0.149534 0.149618 0.149417 
0.149535 0.150614 0.153067 0.154955 0.157654 0.159193 0.159243 0.157262 0.153701 
0.149171 0.144025 0.13981 0.137886 0.138539 0.141606 0.14461 0.154041 0.154041 
0.15396 0.153937 0.153914 0.153832 0.153795 0.153739 0.153688 0.153643 0.153423 
0.154155 0.155703 0.157264 0.158928 0.160523 0.161052 0.15974 0.156389 0.151395 
0.145875 0.140429 0.137021 0.136251 0.137899 0.140304 0.158765 0.158765 0.158847 
0.158809 0.158746 0.158764 0.158598 0.158541 0.158329 0.158291 0.158089 0.158499 
0.159232 0.160094 0.160963 0.161686 0.162101 0.161228 0.158167 0.153173 0.147147 
0.141367 0.13681 0.134562 0.134655 0.136701 0.163727 0.163727 0.163829 0.163839 
0.163776 0.163716 0.163599 0.1635 0.163417 0.163202 0.163071 0.163016 0.163422 
0.163748 0.163663 0.16365 0.163534 0.162414 0.159727 0.154674 0.148467 0.141947 
0.136994 0.133468 0.132718 0.133969 0.168445 0.168445 0.168667 0.168656 0.168686 
0.168597 0.168567 0.168451 0.168407 0.168318 0.168009 0.167872 0.167641 0.167521 
0.166778 0.166199 0.164925 0.163382 0.16045 0.155892 0.149582 0.143379 0.137387 
0.133705 0.131912 0.132881 0.172795 0.172795 0.172976 0.173029 0.172974 0.173055 
0.172999 0.172972 0.172999 0.172954 0.17274 0.172179 0.171795 0.17087 0.169671 
0.168212 0.16653 0.16399 0.161246 0.156762 0.151459 0.144949 0.139454 0.134893 
0.132882 0.132908 0.176408 0.176408 0.176592 0.176625 0.176673 0.176637 0.176747 
0.176734 0.176794 0.176913 0.176675 0.176102 0.175174 0.173971 0.171907 0.169978 
0.167481 0.164934 0.161701 0.15793 0.153124 0.148076 0.142222 0.13762 0.134565 
0.133997 0.17936 0.17936 0.179531 0.179559 0.179555 0.179643 0.179655 0.17978 
0.179779 0.179939 0.179995 0.179219 0.178225 0.176579 0.174396 0.171672 0.168905 
0.165878 0.16272 0.15935 0.155809 0.151264 0.146299 0.140878 0.137393 0.135625 
0.18181 0.18181 0.181882 0.181935 0.181905 0.181939 0.181998 0.182041 0.182158 
0.182219 0.182367 0.181878 0.180646 0.179115 0.176607 0.173946 0.170903 0.167664 
0.164666 0.16169 0.1585 0.155035 0.149954 0.144452 0.139916 0.137465 0.183739 
0.183739 0.183866 0.183838 0.183845 0.183816 0.183847 0.183874 0.183931 0.183989 
0.184105 0.183831 0.182829 0.181323 0.179183 0.17662 0.173584 0.170559 0.167475 
0.16469 0.16181 0.158226 0.153639 0.148054 0.143412 0.139951 0.185602 0.185602 
0.185588 0.185665 0.185491 0.185521 0.185456 0.18547 0.185467 0.185472 0.185482 
0.18552 0.184698 0.183465 0.181633 0.17941 0.176893 0.173893 0.17106 0.167955 
0.165022 0.161184 0.156955 0.151407 0.146383 0.142754 0.18725 0.18725 0.187372 
0.187277 0.187276 0.187136 0.187095 0.186981 0.187002 0.186959 0.186897 0.186964 
0.186455 0.185438 0.183936 0.182211 0.179887 0.177234 0.174328 0.1712 0.16789 
0.164123 0.15967 0.154747 0.150083 0.145784 0.189025 0.189025 0.189061 0.188994 
0.188862 0.188829 0.188673 0.188643 0.188471 0.188451 0.18837 0.188509 0.188119 
0.187259 0.186116 0.18439 0.182275 0.179799 0.176801 0.173657 0.170208 0.166495 
0.162549 0.158052 0.153557 0.149403 0.190649 0.190649 0.190766 0.190732 0.190624 
0.190506 0.190396 0.190185 0.190204 0.190057 0.189889 0.189959 0.189815 0.188967 
0.187781 0.186169 0.184128 0.181385 0.178526 0.175091 0.171845 0.168284 0.164885 
0.160959 0.156635 0.151867 0.192281 0.192281 0.192381 0.192405 0.192249 0.192157 
0.19199 0.191919 0.191677 0.191635 0.191533 0.191496 0.191355 0.190643 0.189565 
0.187799 0.185479 0.182873 0.179627 0.176386 0.172986 0.169883 0.166636 0.163187 
0.158976 0.154151 0.193767 0.193767 0.19392 0.193938 0.193873 0.193794 0.193618 
0.193407 0.193325 0.193172 0.192962 0.192909 0.19294 0.192301 0.191149 0.189359 
0.187101 0.184119 0.181015 0.177521 0.174313 0.171076 0.168191 0.16468 0.16069 
0.155804 0.195228 0.195228 0.195366 0.195456 0.195302 0.195251 0.19514 0.195016 
0.194828 0.194702 0.19459 0.194339 0.194336 0.193906 0.192925 0.191148 0.188725 
0.185862 0.182507 0.179016 0.175664 0.172508 0.169284 0.166176 0.162262 0.157456 
0.196582 0.196582 0.196748 0.196785 0.196726 0.196677 0.196569 0.196398 0.196323 
0.196209 0.196042 0.195884 0.195787 0.195533 0.194545 0.192924 0.190724 0.187731 
0.184447 0.180827 0.177268 0.173981 0.170816 0.167277 0.164014 0.159363 0.197945 
0.197945 0.198057 0.198143 0.19801 0.197973 0.197897 0.197825 0.197695 0.19758 
0.197502 0.19726 0.197291 0.196934 0.196256 0.194855 0.192713 0.189966 0.186773 
0.183072 0.179398 0.175724 0.172364 0.169052 0.165763 0.161321 0.199198 0.199198 
0.199352 0.199344 0.199309 0.199248 0.199168 0.199056 0.199038 0.198937 0.198886 
0.19866 0.198552 0.198447 0.197793 0.196605 0.194918 0.192238 0.189316 0.185801 
0.182082 0.177963 0.174445 0.170771 0.167909 0.163815 0.200517 0.200517 0.200573 
0.200641 0.200473 0.200449 0.200355 0.200317 0.200215 0.200214 0.200105 0.200049 
0.199752 0.199782 0.199275 0.198484 0.196786 0.194718 0.191975 0.18867 0.184956 
0.181024 0.176905 0.17313 0.169981 0.166125 0.201666 0.201666 0.201818 0.201735 
0.201729 0.201607 0.20154 0.201424 0.201432 0.201338 0.201386 0.201191 0.201172 
0.200934 0.200737 0.199919 0.198855 0.196722 0.194585 0.191563 0.188134 0.184016 
0.180038 0.175564 0.172419 0.168532 0.20291 0.20291 0.202943 0.202952 0.202766 
0.202743 0.202595 0.202589 0.202492 0.202493 0.202396 0.20243 0.202171 0.202226 
0.201886 0.20155 0.200295 0.198957 0.19668 0.194237 0.191033 0.187317 0.183018 
0.178501 0.174972 0.171015 0.20393 0.20393 0.20409 0.20396 0.203965 0.203765 
0.203733 0.20358 0.203574 0.203459 0.203532 0.203381 0.203385 0.203102 0.203156 
0.202595 0.201996 0.200356 0.198819 0.196298 0.193506 0.190012 0.186061 0.181517 
0.177526 0.173185 0.205031 0.205031 0.205091 0.205042 0.204842 0.204822 0.204666 
0.204576 0.204536 0.20449 0.204405 0.204472 0.204275 0.204251 0.203997 0.20387 
0.202972 0.201994 0.200038 0.198206 0.195557 0.192189 0.188672 0.184344 0.180196 
0.176361 0.20589 0.20589 0.206042 0.205919 0.205913 0.205693 0.205596 0.20545 
0.205368 0.205345 0.20543 0.205268 0.205308 0.205055 0.205035 0.204633 0.20424 
0.202844 0.201536 0.199281 0.197175 0.194305 0.190847 0.187022 0.183297 0.179243 
0.206812 0.206812 0.20685 0.206891 0.206655 0.206547 0.206327 0.206261 0.206288 
0.206207 0.206189 0.206277 0.206073 0.206038 0.205743 0.205664 0.204965 0.204044 
0.202269 0.200628 0.198291 0.195783 0.193055 0.18964 0.18613 0.182093 0.207568 
0.207568 0.207733 0.20763 0.20762 0.207383 0.207249 0.207025 0.206975 0.207067 
0.207072 0.206972 0.207035 0.206771 0.206693 0.206327 0.206028 0.204736 0.203494 
0.201402 0.199685 0.197361 0.194699 0.192072 0.188785 0.184012 0.208359 0.208359 
0.208422 0.208479 0.208281 0.208081 0.207882 0.207831 0.207788 0.20771 0.207835 
0.207908 0.207718 0.207683 0.207365 0.207297 0.206721 0.205897 0.204282 0.2028 
0.200732 0.198848 0.196776 0.194145 0.191247 0.185996 0.209051 0.209051 0.209214 
0.20914 0.2091 0.208862 0.208755 0.208529 0.208495 0.208604 0.208569 0.208564 
0.20865 0.208375 0.208301 0.207935 0.207805 0.206711 0.205648 0.203811 0.202371 
0.200518 0.19828 0.196306 0.193164 0.187869 0.209813 0.209813 0.209879 0.209951 
0.209733 0.209535 0.209386 0.209335 0.209207 0.20915 0.209361 0.20937 0.209275 
0.209269 0.208954 0.208918 0.208512 0.207975 0.20663 0.205441 0.203625 0.202085 
0.200177 0.198178 0.19535 0.189839 0.210421 0.210421 0.210575 0.210535 0.210352 
0.210177 0.210199 0.20993 0.209906 0.209991 0.209962 0.210036 0.210129 0.209906 
0.209858 0.209519 0.20961 0.208831 0.208098 0.206611 0.205365 0.20372 0.201678 
0.199875 0.19715 0.192209 0.211165 0.211165 0.211241 0.211364 0.21113 0.21096 
0.210796 0.21074 0.210543 0.210503 0.210763 0.210702 0.210712 0.210739 0.210456 
0.210471 0.210219 0.210066 0.209048 0.208236 0.206556 0.205226 0.20332 0.201559 
0.198969 0.194477 0.211796 0.211796 0.211974 0.21185 0.211866 0.211645 0.211533 
0.211292 0.211262 0.211163 0.211192 0.211359 0.211383 0.211254 0.21122 0.2109 
0.211173 0.210728 0.210359 0.209232 0.208137 0.206535 0.204713 0.203041 0.200753 
0.196849 0.212534 0.212534 0.212521 0.212799 0.212463 0.212501 0.212195 0.211971 
0.211833 0.211761 0.211935 0.211775 0.211913 0.211869 0.211593 0.211584 0.211513 
0.211711 0.211026 0.210585 0.209023 0.207927 0.206157 0.204759 0.202743 0.199699 
0.21311 0.21311 0.213256 0.213265 0.213225 0.213057 0.212965 0.212649 0.212397 
0.212598 0.212289 0.212462 0.21231 0.212309 0.212205 0.212001 0.212239 0.212123 
0.21206 0.211255 0.21038 0.208916 0.207619 0.206299 0.204904 0.201852 0.213549 
0.213549 0.213635 0.213743 0.213548 0.213423 0.213079 0.212989 0.212662 0.212621 
0.212358 0.212034 0.211834 0.211643 0.21125 0.211387 0.211548 0.212296 0.212262 
0.212277 0.211033 0.210341 0.208933 0.208236 0.206649 0.20444 0.212698 0.212698 
0.212651 0.212757 0.212462 0.212083 0.211757 0.21113 0.210886 0.210254 0.210135 
0.20943 0.209128 0.207978 0.207398 0.206785 0.20795 0.209277 0.211227 0.211482 
0.211318 0.210328 0.209969 0.208607 0.207627 0.204834 0.133819 0.133819 0.133656 
0.133828 0.13383 0.134005 0.134057 0.134221 0.134228 0.135097 0.136269 0.137934 
0.139465 0.141492 0.142772 0.143732 0.143241 0.142235 0.141019 0.140613 0.141754 
0.143757 0.146875 0.150202 0.154167 0.158285 0.141148 0.141148 0.141242 0.141267 