# vtk DataFile Version 5.1
vtk output
ASCII
DATASET STRUCTURED_GRID
DIMENSIONS 12 13 25
POINTS 3900 float
1.44059 1 0.569947 1.44059 1.003 0.569947 1.44059 1.00865 0.569947 
1.44059 1.01913 0.569947 1.44059 1.03811 0.569947 1.44059 1.07096 0.569947 
1.44059 1.12363 0.569947 1.44059 1.19852 0.569947 1.44059 1.28865 0.569947 
1.44059 1.37767 0.569947 1.44059 1.45 0.569947 1.44059 1.5 0.569947 
1.44059 1 0.583924 1.44059 1.003 0.583924 1.44059 1.00865 0.583924 
1.44059 1.01913 0.583924 1.44059 1.03811 0.583924 1.44059 1.07096 0.583924 
1.44059 1.12363 0.583924 1.44059 1.19852 0.583924 1.44059 1.28865 0.583924 
1.44059 1.37767 0.583924 1.44059 1.45 0.583924 1.44059 1.5 0.583924 
1.44059 1 0.600565 1.44059 1.003 0.600565 1.44059 1.00865 0.600565 
1.44059 1.01913 0.600565 1.44059 1.03811 0.600565 1.44059 1.07096 0.600565 
1.44059 1.12363 0.600565 1.44059 1.19852 0.600565 1.44059 1.28865 0.600565 
1.44059 1.37767 0.600565 1.44059 1.45 0.600565 1.44059 1.5 0.600565 
1.44059 1 0.6204 1.44059 1.003 0.6204 1.44059 1.00865 0.6204 
1.44059 1.01913 0.6204 1.44059 1.03811 0.6204 1.44059 1.07096 0.6204 
1.44059 1.12363 0.6204 1.44059 1.19852 0.6204 1.44059 1.28865 0.6204 
1.44059 1.37767 0.6204 1.44059 1.45 0.6204 1.44059 1.5 0.6204 
1.44059 1 0.644057 1.44059 1.003 0.644057 1.44059 1.00865 0.644057 
1.44059 1.01913 0.644057 1.44059 1.03811 0.644057 1.44059 1.07096 0.644057 
1.44059 1.12363 0.644057 1.44059 1.19852 0.644057 1.44059 1.28865 0.644057 
1.44059 1.37767 0.644057 1.44059 1.45 0.644057 1.44059 1.5 0.644057 
1.44059 1 0.672287 1.44059 1.003 0.672287 1.44059 1.00865 0.672287 
1.44059 1.01913 0.672287 1.44059 1.03811 0.672287 1.44059 1.07096 0.672287 
1.44059 1.12363 0.672287 1.44059 1.19852 0.672287 1.44059 1.28865 0.672287 
1.44059 1.37767 0.672287 1.44059 1.45 0.672287 1.44059 1.5 0.672287 
1.44059 1 0.705987 1.44059 1.003 0.705987 1.44059 1.00865 0.705987 
1.44059 1.01913 0.705987 1.44059 1.03811 0.705987 1.44059 1.07096 0.705987 
1.44059 1.12363 0.705987 1.44059 1.19852 0.705987 1.44059 1.28865 0.705987 
1.44059 1.37767 0.705987 1.44059 1.45 0.705987 1.44059 1.5 0.705987 
1.44059 1 0.746226 1.44059 1.003 0.746226 1.44059 1.00865 0.746226 
1.44059 1.01913 0.746226 1.44059 1.03811 0.746226 1.44059 1.07096 0.746226 
1.44059 1.12363 0.746226 1.44059 1.19852 0.746226 1.44059 1.28865 0.746226 
1.44059 1.37767 0.746226 1.44059 1.45 0.746226 1.44059 1.5 0.746226 
1.44059 1 0.794282 1.44059 1.003 0.794282 1.44059 1.00865 0.794282 
1.44059 1.01913 0.794282 1.44059 1.03811 0.794282 1.44059 1.07096 0.794282 
1.44059 1.12363 0.794282 1.44059 1.19852 0.794282 1.44059 1.28865 0.794282 
1.44059 1.37767 0.794282 1.44059 1.45 0.794282 1.44059 1.5 0.794282 
1.44059 1 0.851682 1.44059 1.003 0.851682 1.44059 1.00865 0.851682 
1.44059 1.01913 0.851682 1.44059 1.03811 0.851682 1.44059 1.07096 0.851682 
1.44059 1.12363 0.851682 1.44059 1.19852 0.851682 1.44059 1.28865 0.851682 
1.44059 1.37767 0.851682 1.44059 1.45 0.851682 1.44059 1.5 0.851682 
1.44059 1 0.920246 1.44059 1.003 0.920246 1.44059 1.00865 0.920246 
1.44059 1.01913 0.920246 1.44059 1.03811 0.920246 1.44059 1.07096 0.920246 
1.44059 1.12363 0.920246 1.44059 1.19852 0.920246 1.44059 1.28865 0.920246 
1.44059 1.37767 0.920246 1.44059 1.45 0.920246 1.44059 1.5 0.920246 
1.44059 1 1.00215 1.44059 1.003 1.00215 1.44059 1.00865 1.00215 
1.44059 1.01913 1.00215 1.44059 1.03811 1.00215 1.44059 1.07096 1.00215 
1.44059 1.12363 1.00215 1.44059 1.19852 1.00215 1.44059 1.28865 1.00215 
1.44059 1.37767 1.00215 1.44059 1.45 1.00215 1.44059 1.5 1.00215 
1.44059 1 1.1 1.44059 1.003 1.1 1.44059 1.00865 1.1 
1.44059 1.01913 1.1 1.44059 1.03811 1.1 1.44059 1.07096 1.1 
1.44059 1.12363 1.1 1.44059 1.19852 1.1 1.44059 1.28865 1.1 
1.44059 1.37767 1.1 1.44059 1.45 1.1 1.44059 1.5 1.1 
1.44342 1.00093 0.570305 1.44342 1.00392 0.570305 1.44342 1.00954 0.570305 
1.44342 1.01999 0.570305 1.44342 1.03889 0.570305 1.44342 1.07163 0.570305 
1.44342 1.12413 0.570305 1.44342 1.19884 0.570305 1.44342 1.28885 0.570305 
1.44342 1.37795 0.570305 1.44342 1.45055 0.570305 1.44342 1.50093 0.570305 
1.44342 1.00093 0.584277 1.44342 1.00392 0.584277 1.44342 1.00954 0.584277 
1.44342 1.01999 0.584277 1.44342 1.03889 0.584277 1.44342 1.07163 0.584277 
1.44342 1.12413 0.584277 1.44342 1.19884 0.584277 1.44342 1.28885 0.584277 
1.44342 1.37795 0.584277 1.44342 1.45055 0.584277 1.44342 1.50093 0.584277 
1.44342 1.00093 0.600911 1.44342 1.00392 0.600911 1.44342 1.00954 0.600911 
1.44342 1.01999 0.600911 1.44342 1.03889 0.600911 1.44342 1.07163 0.600911 
1.44342 1.12413 0.600911 1.44342 1.19884 0.600911 1.44342 1.28885 0.600911 
1.44342 1.37795 0.600911 1.44342 1.45055 0.600911 1.44342 1.50093 0.600911 
1.44342 1.00093 0.620736 1.44342 1.00392 0.620736 1.44342 1.00954 0.620736 
1.44342 1.01999 0.620736 1.44342 1.0389 0.620736 1.44342 1.07163 0.620736 
1.44342 1.12413 0.620736 1.44342 1.19884 0.620736 1.44342 1.28885 0.620736 
1.44342 1.37795 0.620736 1.44342 1.45055 0.620736 1.44342 1.50093 0.620736 
1.44342 1.00093 0.64438 1.44342 1.00392 0.64438 1.44342 1.00954 0.64438 
1.44342 1.01999 0.64438 1.44342 1.0389 0.64438 1.44342 1.07163 0.64438 
1.44342 1.12413 0.64438 1.44342 1.19884 0.64438 1.44342 1.28885 0.64438 
1.44342 1.37795 0.64438 1.44342 1.45056 0.64438 1.44342 1.50093 0.64438 
1.44342 1.00093 0.672594 1.44342 1.00392 0.672594 1.44342 1.00954 0.672594 
1.44342 1.01999 0.672594 1.44342 1.0389 0.672594 1.44342 1.07163 0.672594 
1.44342 1.12413 0.672594 1.44342 1.19884 0.672594 1.44342 1.28885 0.672594 
1.44342 1.37795 0.672594 1.44342 1.45056 0.672594 1.44342 1.50093 0.672594 
1.44342 1.00093 0.706274 1.44342 1.00392 0.706274 1.44342 1.00954 0.706274 
1.44342 1.01999 0.706274 1.44342 1.0389 0.706274 1.44342 1.07163 0.706274 
1.44342 1.12413 0.706274 1.44342 1.19884 0.706274 1.44342 1.28885 0.706274 
1.44342 1.37795 0.706274 1.44342 1.45056 0.706274 1.44342 1.50093 0.706274 
1.44343 1.00093 0.746488 1.44343 1.00392 0.746488 1.44343 1.00955 0.746488 
1.44343 1.01999 0.746488 1.44343 1.0389 0.746488 1.44343 1.07163 0.746488 
1.44343 1.12413 0.746488 1.44343 1.19884 0.746488 1.44343 1.28885 0.746488 
1.44343 1.37795 0.746488 1.44343 1.45056 0.746488 1.44343 1.50093 0.746488 
1.44343 1.00093 0.794512 1.44343 1.00392 0.794512 1.44343 1.00955 0.794512 
1.44343 1.01999 0.794512 1.44343 1.0389 0.794512 1.44343 1.07163 0.794512 
1.44343 1.12413 0.794512 1.44343 1.19884 0.794512 1.44343 1.28885 0.794512 
1.44343 1.37795 0.794512 1.44343 1.45056 0.794512 1.44343 1.50093 0.794512 
1.44343 1.00093 0.851872 1.44343 1.00392 0.851872 1.44343 1.00955 0.851872 
1.44343 1.01999 0.851872 1.44343 1.0389 0.851872 1.44343 1.07163 0.851872 
1.44343 1.12413 0.851872 1.44343 1.19884 0.851872 1.44343 1.28885 0.851872 
1.44343 1.37795 0.851872 1.44343 1.45056 0.851872 1.44343 1.50093 0.851872 
1.44343 1.00093 0.920386 1.44343 1.00392 0.920386 1.44343 1.00955 0.920386 
1.44343 1.01999 0.920386 1.44343 1.0389 0.920386 1.44343 1.07163 0.920386 
1.44343 1.12413 0.920386 1.44343 1.19884 0.920386 1.44343 1.28885 0.920386 
1.44343 1.37795 0.920386 1.44343 1.45056 0.920386 1.44343 1.50094 0.920386 
1.44344 1.00094 1.00223 1.44344 1.00392 1.00223 1.44344 1.00955 1.00223 
1.44344 1.01999 1.00223 1.44344 1.0389 1.00223 1.44344 1.07163 1.00223 
1.44344 1.12413 1.00223 1.44344 1.19884 1.00223 1.44344 1.28885 1.00223 
1.44344 1.37795 1.00223 1.44344 1.45056 1.00223 1.44344 1.50094 1.00223 
1.44344 1.00094 1.1 1.44344 1.00393 1.1 1.44344 1.00955 1.1 
1.44344 1.01999 1.1 1.44344 1.0389 1.1 1.44344 1.07163 1.1 
1.44344 1.12413 1.1 1.44344 1.19884 1.1 1.44344 1.28885 1.1 
1.44344 1.37795 1.1 1.44344 1.45056 1.1 1.44344 1.50094 1.1 
1.44701 1.00211 0.57076 1.44701 1.00508 0.57076 1.44701 1.01068 0.57076 
1.44701 1.02107 0.57076 1.44701 1.03989 0.57076 1.44701 1.07248 0.57076 
1.44701 1.12477 0.57076 1.44701 1.19923 0.57076 1.44701 1.28911 0.57076 
1.44701 1.3783 0.57076 1.44701 1.45126 0.57076 1.44701 1.50211 0.57076 
1.44701 1.00211 0.584724 1.44701 1.00508 0.584724 1.44701 1.01068 0.584724 
1.44701 1.02107 0.584724 1.44701 1.03989 0.584724 1.44701 1.07248 0.584724 
1.44701 1.12477 0.584724 1.44701 1.19923 0.584724 1.44701 1.28911 0.584724 
1.44701 1.3783 0.584724 1.44701 1.45126 0.584724 1.44701 1.50211 0.584724 
1.44701 1.00211 0.601349 1.44701 1.00508 0.601349 1.44701 1.01068 0.601349 
1.44701 1.02107 0.601349 1.44701 1.03989 0.601349 1.44701 1.07248 0.601349 
1.44701 1.12477 0.601349 1.44701 1.19923 0.601349 1.44701 1.28911 0.601349 
1.44701 1.3783 0.601349 1.44701 1.45126 0.601349 1.44701 1.50211 0.601349 
1.44701 1.00211 0.621161 1.44701 1.00508 0.621161 1.44701 1.01068 0.621161 
1.44701 1.02108 0.621161 1.44701 1.03989 0.621161 1.44701 1.07248 0.621161 
1.44701 1.12477 0.621161 1.44701 1.19923 0.621161 1.44701 1.28911 0.621161 
1.44701 1.3783 0.621161 1.44701 1.45126 0.621161 1.44701 1.50211 0.621161 
1.44701 1.00211 0.644789 1.44701 1.00509 0.644789 1.44701 1.01068 0.644789 
1.44701 1.02108 0.644789 1.44701 1.03989 0.644789 1.44701 1.07248 0.644789 
1.44701 1.12477 0.644789 1.44701 1.19923 0.644789 1.44701 1.28911 0.644789 
1.44701 1.3783 0.644789 1.44701 1.45126 0.644789 1.44701 1.50211 0.644789 
1.44701 1.00211 0.672983 1.44701 1.00509 0.672983 1.44701 1.01068 0.672983 
1.44701 1.02108 0.672983 1.44701 1.03989 0.672983 1.44701 1.07248 0.672983 
1.44701 1.12477 0.672983 1.44701 1.19923 0.672983 1.44701 1.28911 0.672983 
1.44701 1.3783 0.672983 1.44701 1.45126 0.672983 1.44701 1.50211 0.672983 
1.44702 1.00211 0.706638 1.44702 1.00509 0.706638 1.44702 1.01068 0.706638 
1.44702 1.02108 0.706638 1.44702 1.03989 0.706638 1.44702 1.07248 0.706638 
1.44702 1.12477 0.706638 1.44702 1.19923 0.706638 1.44702 1.28911 0.706638 
1.44702 1.3783 0.706638 1.44702 1.45126 0.706638 1.44702 1.50211 0.706638 
1.44702 1.00211 0.74682 1.44702 1.00509 0.74682 1.44702 1.01069 0.74682 
1.44702 1.02108 0.74682 1.44702 1.0399 0.74682 1.44702 1.07248 0.74682 
1.44702 1.12477 0.74682 1.44702 1.19923 0.74682 1.44702 1.28911 0.74682 
[...]
POINT_DATA 3900
FIELD FieldData 5
pressure 1 3900 float
0.264282 0.256121 0.245187 0.20961 0.180801 0.178632 0.17857 0.178573 0.178573 
0.178573 0.178573 0.178573 0.253911 0.249417 0.240599 0.200457 0.179891 0.178604 
0.17857 0.178573 0.178573 0.178573 0.178573 0.178573 0.243733 0.240338 0.230199 
0.190034 0.179113 0.178581 0.178571 0.178573 0.178573 0.178573 0.178573 0.178573 
0.24031 0.227979 0.206 0.181622 0.178687 0.178571 0.178573 0.178573 0.178573 
0.178573 0.178573 0.178573 0.221509 0.200476 0.183607 0.178968 0.178578 0.178571 
0.178574 0.178573 0.178573 0.178573 0.178573 0.178573 0.18531 0.181046 0.179012 
0.178576 0.178569 0.178575 0.178573 0.178573 0.178573 0.178573 0.178573 0.178573 
0.179033 0.178674 0.17856 0.178567 0.178575 0.178573 0.178573 0.178573 0.178573 
0.178573 0.178573 0.178573 0.178568 0.178559 0.178568 0.178575 0.178573 0.178573 
0.178573 0.178573 0.178573 0.178573 0.178573 0.178573 0.178569 0.178574 0.178575 
0.178573 0.178573 0.178573 0.178573 0.178573 0.178573 0.178573 0.178573 0.178573 
0.178575 0.178574 0.178573 0.178573 0.178573 0.178573 0.178573 0.178573 0.178573 
0.178573 0.178573 0.178573 0.178573 0.178573 0.178573 0.178573 0.178573 0.178573 
0.178573 0.178573 0.178573 0.178573 0.178573 0.178573 0.178573 0.178573 0.178573 
0.178573 0.178573 0.178573 0.178573 0.178573 0.178573 0.178573 0.178573 0.178573 
0.178573 0.178573 0.178573 0.178573 0.178573 0.178573 0.178573 0.178573 0.178573 
0.178573 0.178573 0.178573 0.266441 0.257757 0.24451 0.211386 0.181388 0.178651 
0.17857 0.178573 0.178573 0.178573 0.178573 0.178573 0.255823 0.251879 0.240098 
0.202205 0.180234 0.178615 0.17857 0.178573 0.178573 0.178573 0.178573 0.178573 
0.244496 0.23904 0.232192 0.19241 0.179349 0.178585 0.178571 0.178573 0.178573 
0.178573 0.178573 0.178573 0.241647 0.22843 0.209695 0.182952 0.178758 0.178572 
0.178573 0.178573 0.178573 0.178573 0.178573 0.178573 0.225197 0.204495 0.18571 
0.179181 0.178582 0.17857 0.178574 0.178573 0.178573 0.178573 0.178573 0.178573 
0.187451 0.181897 0.17921 0.178585 0.178567 0.178574 0.178573 0.178573 0.178573 
0.178573 0.178573 0.178573 0.179184 0.178732 0.178566 0.178563 0.178575 0.178574 
0.178573 0.178573 0.178573 0.178573 0.178573 0.178573 0.178573 0.178558 0.178566 
0.178575 0.178574 0.178573 0.178573 0.178573 0.178573 0.178573 0.178573 0.178573 
0.178568 0.178573 0.178575 0.178574 0.178573 0.178573 0.178573 0.178573 0.178573 
0.178573 0.178573 0.178573 0.178575 0.178574 0.178573 0.178573 0.178573 0.178573 
0.178573 0.178573 0.178573 0.178573 0.178573 0.178573 0.178573 0.178573 0.178573 
0.178573 0.178573 0.178573 0.178573 0.178573 0.178573 0.178573 0.178573 0.178573 
0.178573 0.178573 0.178573 0.178573 0.178573 0.178573 0.178573 0.178573 0.178573 
0.178573 0.178573 0.178573 0.178573 0.178573 0.178573 0.178573 0.178573 0.178573 
0.178573 0.178573 0.178573 0.178573 0.178573 0.178573 0.267598 0.258985 0.248079 
0.216648 0.182319 0.178691 0.178571 0.178573 0.178573 0.178573 0.178573 0.178573 
0.258188 0.253332 0.242026 0.207071 0.180818 0.178637 0.17857 0.178573 0.178573 
0.178573 0.178573 0.178573 0.245377 0.241682 0.23711 0.195966 0.179666 0.178594 
0.17857 0.178574 0.178573 0.178573 0.178573 0.178573 0.242403 0.231735 0.216082 
0.184802 0.178873 0.178574 0.178572 0.178573 0.178573 0.178573 0.178573 0.178573 
0.229805 0.210442 0.188731 0.179533 0.178592 0.178569 0.178574 0.178573 0.178573 
0.178573 0.178573 0.178573 0.191103 0.183292 0.179554 0.178611 0.178565 0.178574 
0.178573 0.178573 0.178573 0.178573 0.178573 0.178573 0.179462 0.178841 0.178584 
0.17856 0.178575 0.178574 0.178573 0.178573 0.178573 0.178573 0.178573 0.178573 
0.178584 0.178558 0.178563 0.178574 0.178574 0.178573 0.178573 0.178573 0.178573 
0.178573 0.178573 0.178573 0.178566 0.178571 0.178575 0.178574 0.178573 0.178573 
0.178573 0.178573 0.178573 0.178573 0.178573 0.178573 0.178575 0.178575 0.178573 
0.178573 0.178573 0.178573 0.178573 0.178573 0.178573 0.178573 0.178573 0.178573 
0.178573 0.178573 0.178573 0.178573 0.178573 0.178573 0.178573 0.178573 0.178573 
0.178573 0.178573 0.178573 0.178573 0.178573 0.178573 0.178573 0.178573 0.178573 
0.178573 0.178573 0.178573 0.178573 0.178573 0.178573 0.178573 0.178573 0.178573 
0.178573 0.178573 0.178573 0.178573 0.178573 0.178573 0.178573 0.178573 0.178573 
0.268633 0.260662 0.253278 0.224173 0.183869 0.178766 0.178573 0.178572 0.178573 
0.178573 0.178573 0.178573 0.260494 0.254801 0.244755 0.214116 0.181883 0.17868 
0.178571 0.178573 0.178573 0.178573 0.178573 0.178573 0.247283 0.246104 0.242727 
0.201307 0.180219 0.178611 0.17857 0.178573 0.178573 0.178573 0.178573 0.178573 
0.243267 0.235308 0.224665 0.188119 0.179086 0.178579 0.178571 0.178573 0.178573 
0.178573 0.178573 0.178573 0.235094 0.217584 0.194203 0.180207 0.178619 0.178569 
0.178574 0.178573 0.178573 0.178573 0.178573 0.178573 0.197215 0.185835 0.180189 
0.178667 0.178565 0.178573 0.178573 0.178573 0.178573 0.178573 0.178573 0.178573 
0.179989 0.179057 0.178625 0.178558 0.178575 0.178574 0.178573 0.178573 0.178573 
0.178573 0.178573 0.178573 0.17861 0.178565 0.178561 0.178573 0.178574 0.178573 
0.178573 0.178573 0.178573 0.178573 0.178573 0.178573 0.178565 0.178569 0.178575 
0.178574 0.178573 0.178573 0.178573 0.178573 0.178573 0.178573 0.178573 0.178573 
0.178575 0.178575 0.178574 0.178573 0.178573 0.178573 0.178573 0.178573 0.178573 
0.178573 0.178573 0.178573 0.178573 0.178573 0.178573 0.178573 0.178573 0.178573 
0.178573 0.178573 0.178573 0.178573 0.178573 0.178573 0.178573 0.178573 0.178573 
0.178573 0.178573 0.178573 0.178573 0.178573 0.178573 0.178573 0.178573 0.178573 
0.178573 0.178573 0.178573 0.178573 0.178573 0.178573 0.178573 0.178573 0.178573 
0.178573 0.178573 0.178573 0.269341 0.263839 0.260004 0.234008 0.186469 0.178899 
0.178577 0.178571 0.178573 0.178573 0.178573 0.178573 0.262686 0.256591 0.248908 
0.222961 0.183769 0.17877 0.178574 0.178572 0.178573 0.178573 0.178573 0.178573 
0.251072 0.25193 0.248405 0.208596 0.181295 0.178655 0.178571 0.178573 0.178573 
0.178573 0.178573 0.178573 0.244062 0.239246 0.234064 0.193809 0.17948 0.178589 
0.17857 0.178573 0.178573 0.178573 0.178573 0.178573 0.239199 0.22437 0.203564 
0.181778 0.1787 0.178569 0.178573 0.178573 0.178573 0.178573 0.178573 0.178573 
0.207005 0.190873 0.181608 0.178827 0.178567 0.178572 0.178574 0.178573 0.178573 
0.178573 0.178573 0.178573 0.181102 0.179485 0.178734 0.17856 0.178572 0.178574 
0.178573 0.178573 0.178573 0.178573 0.178573 0.178573 0.178675 0.178579 0.178561 
0.178571 0.178574 0.178573 0.178573 0.178573 0.178573 0.178573 0.178573 0.178573 
0.178564 0.178565 0.178573 0.178575 0.178573 0.178573 0.178573 0.178573 0.178573 
0.178573 0.178573 0.178573 0.178574 0.178575 0.178574 0.178573 0.178573 0.178573 
0.178573 0.178573 0.178573 0.178573 0.178573 0.178573 0.178573 0.178573 0.178573 
0.178573 0.178573 0.178573 0.178573 0.178573 0.178573 0.178573 0.178573 0.178573 
0.178573 0.178573 0.178573 0.178573 0.178573 0.178573 0.178573 0.178573 0.178573 
0.178573 0.178573 0.178573 0.178573 0.178573 0.178573 0.178573 0.178573 0.178573 
0.178573 0.178573 0.178573 0.178573 0.178573 0.178573 0.27039 0.268866 0.267102 
0.24612 0.190944 0.179164 0.178583 0.17857 0.178574 0.178573 0.178573 0.178573 
0.26533 0.260211 0.25499 0.234083 0.187081 0.178943 0.178577 0.178571 0.178573 
0.178573 0.178573 0.178573 0.257278 0.257434 0.252273 0.218397 0.183392 0.178746 
0.178573 0.178572 0.178573 0.178573 0.178573 0.178573 0.24591 0.245612 0.243574 
0.20229 0.180371 0.178616 0.17857 0.178573 0.178573 0.178573 0.178573 0.178573 
0.241342 0.23094 0.216928 0.18541 0.178918 0.178576 0.178571 0.178574 0.178573 
0.178573 0.178573 0.178573 0.219988 0.201057 0.185135 0.179196 0.178581 0.178569 
0.178574 0.178573 0.178573 0.178573 0.178573 0.178573 0.183471 0.180522 0.178985 
0.178581 0.178571 0.178575 0.178573 0.178573 0.178573 0.178573 0.178573 0.178573 
0.178823 0.178641 0.178566 0.178568 0.178576 0.178573 0.178573 0.178573 0.178573 
0.178573 0.178573 0.178573 0.178567 0.178564 0.17857 0.178575 0.178573 0.178573 
0.178573 0.178573 0.178573 0.178573 0.178573 0.178573 0.178572 0.178575 0.178575 
0.178573 0.178573 0.178573 0.178573 0.178573 0.178573 0.178573 0.178573 0.178573 
0.178574 0.178573 0.178573 0.178573 0.178573 0.178573 0.178573 0.178573 0.178573 
0.178573 0.178573 0.178573 0.178573 0.178573 0.178573 0.178573 0.178573 0.178573 
0.178573 0.178573 0.178573 0.178573 0.178573 0.178573 0.178573 0.178573 0.178573 
0.178573 0.178573 0.178573 0.178573 0.178573 0.178573 0.178573 0.178573 0.178573 
0.272987 0.274565 0.273093 0.258646 0.199299 0.179646 0.178601 0.178569 0.178574 
0.178573 0.178573 0.178573 0.268137 0.266276 0.262405 0.246285 0.193221 0.179301 
0.178591 0.17857 0.178574 0.178573 0.178573 0.178573 0.264943 0.262291 0.255679 
0.23005 0.187594 0.178972 0.178578 0.178572 0.178574 0.178573 0.178573 0.178573 
0.251236 0.25275 0.249822 0.214428 0.182513 0.178705 0.178571 0.178572 0.178573 
0.178573 0.178573 0.178573 0.242313 0.237358 0.232541 0.193572 0.179483 0.178585 
0.17857 0.178573 0.178573 0.178573 0.178573 0.178573 0.231344 0.214981 0.194063 
0.180482 0.178629 0.178568 0.178574 0.178573 0.178573 0.178573 0.178573 0.178573 
0.188897 0.183097 0.17976 0.178647 0.17856 0.178573 0.178573 0.178573 0.178573 
0.178573 0.178573 0.178573 0.179173 0.178788 0.178606 0.178562 0.178573 0.178574 
0.178573 0.178573 0.178573 0.178573 0.178573 0.178573 0.178578 0.178563 0.178566 
0.178574 0.178574 0.178573 0.178573 0.178573 0.178573 0.178573 0.178573 0.178573 
0.178569 0.178572 0.178574 0.178574 0.178573 0.178573 0.178573 0.178573 0.178573 
0.178573 0.178573 0.178573 0.178574 0.178574 0.178573 0.178573 0.178573 0.178573 
0.178573 0.178573 0.178573 0.178573 0.178573 0.178573 0.178573 0.178573 0.178573 
0.178573 0.178573 0.178573 0.178573 0.178573 0.178573 0.178573 0.178573 0.178573 
0.178573 0.178573 0.178573 0.178573 0.178573 0.178573 0.178573 0.178573 0.178573 
0.178573 0.178573 0.178573 0.279892 0.280613 0.278081 0.270007 0.213474 0.180826 
0.178636 0.17857 0.178573 0.178573 0.178573 0.178573 0.27268 0.273421 0.270067 
0.258372 0.204091 0.180039 0.178608 0.178568 0.178573 0.178573 0.178573 0.178573 
0.270646 0.266694 0.260305 0.241475 0.195952 0.179431 0.178593 0.178568 0.178574 
0.178573 0.178573 0.178573 0.259437 0.257904 0.252961 0.228479 0.187393 0.178953 
0.178579 0.178571 0.178574 0.178573 0.178573 0.178573 0.245658 0.246833 0.24503 
0.20653 0.181234 0.178651 0.178569 0.178573 0.178573 0.178573 0.178573 0.178573 
0.237843 0.226727 0.212154 0.184864 0.178892 0.178573 0.178571 0.178574 0.178573 
0.178573 0.178573 0.178573 0.201302 0.189576 0.18226 0.178968 0.178581 0.178571 
0.178574 0.178573 0.178573 0.178573 0.178573 0.178573 0.180221 0.179271 0.178731 
0.178577 0.178573 0.178573 0.178573 0.178573 0.178573 0.178573 0.178573 0.178573 
0.178632 0.178584 0.178566 0.178571 0.178574 0.178572 0.178573 0.178573 0.178573 
0.178573 0.178573 0.178573 0.178567 0.178569 0.178574 0.178574 0.178572 0.178573 
0.178573 0.178573 0.178573 0.178573 0.178573 0.178573 0.178574 0.178574 0.178573 
0.178573 0.178573 0.178573 0.178573 0.178573 0.178573 0.178573 0.178573 0.178573 
0.178573 0.178573 0.178573 0.178573 0.178573 0.178573 0.178573 0.178573 0.178573 
0.178573 0.178573 0.178573 0.178573 0.178573 0.178573 0.178573 0.178573 0.178573 
0.178573 0.178573 0.178573 0.178573 0.178573 0.178573 0.295594 0.292005 0.287027 
0.279962 0.232762 0.183853 0.178771 0.178572 0.178572 0.178573 0.178573 0.178573 
0.280218 0.278793 0.275118 0.268438 0.221218 0.182115 0.178695 0.178573 0.178573 
0.178573 0.178573 0.178573 0.27352 0.270275 0.265609 0.252879 0.210222 0.180731 
0.178631 0.178571 0.178573 0.178573 0.178573 0.178573 0.265775 0.262398 0.257209 
0.24023 0.197872 0.179586 0.178592 0.178568 0.178574 0.178573 0.178573 0.178573 
0.253174 0.253718 0.250187 0.224105 0.186041 0.178881 0.178577 0.178571 0.178573 
0.178573 0.178573 0.178573 0.240437 0.23707 0.232619 0.19634 0.179999 0.178601 
0.178569 0.178573 0.178573 0.178573 0.178573 0.178573 0.219753 0.206303 0.190236 
0.180439 0.178631 0.178568 0.178573 0.178573 0.178573 0.178573 0.178573 0.178573 
0.183298 0.180962 0.179364 0.178617 0.178566 0.178577 0.178574 0.178573 0.178573 
0.178573 0.178573 0.178573 0.178788 0.178657 0.178587 0.178569 0.178576 0.178575 
0.178573 0.178573 0.178573 0.178573 0.178573 0.178573 0.178566 0.178564 0.178568 
0.178575 0.178574 0.178573 0.178573 0.178573 0.178573 0.178573 0.178573 0.178573 
0.178572 0.178575 0.178575 0.178573 0.178573 0.178573 0.178573 0.178573 0.178573 
0.178573 0.178573 0.178573 0.178574 0.178573 0.178573 0.178573 0.178573 0.178573 
0.178573 0.178573 0.178573 0.178573 0.178573 0.178573 0.178573 0.178573 0.178573 
0.178573 0.178573 0.178573 0.178573 0.178573 0.178573 0.178573 0.178573 0.178573 
0.336432 0.32814 0.318132 0.303516 0.25937 0.190835 0.179084 0.178586 0.17857 
0.178574 0.178573 0.178573 0.29699 0.291211 0.285869 0.280446 0.242845 0.187033 
0.178917 0.178573 0.17857 0.178574 0.178573 0.178573 0.276451 0.273744 0.271447 
0.264439 0.231405 0.18432 0.178791 0.17857 0.178572 0.178574 0.178573 0.178573 
0.26805 0.265038 0.261212 0.250613 0.215101 0.181629 0.17867 0.178571 0.178573 
0.178573 0.178573 0.178573 0.260317 0.25824 0.254007 0.23752 0.197939 0.17966 
0.178594 0.178569 0.178574 0.178573 0.178573 0.178573 0.247008 0.247906 0.244413 
0.216318 0.18403 0.178776 0.178574 0.178572 0.178573 0.178573 0.178573 0.178573 
0.232523 0.223498 0.210948 0.18653 0.179161 0.178579 0.17857 0.178573 0.178573 
0.178573 0.178573 0.178573 0.191503 0.185837 0.181767 0.179099 0.178576 0.178565 
0.178573 0.178573 0.178573 0.178573 0.178573 0.178573 0.179377 0.178978 0.178694 
0.178575 0.178567 0.178572 0.178573 0.178573 0.178573 0.178573 0.178573 0.178573 
0.178589 0.178573 0.178568 0.178569 0.178573 0.178573 0.178573 0.178573 0.178573 
0.178573 0.178573 0.178573 0.178567 0.178569 0.178573 0.178574 0.178573 0.178573 
0.178573 0.178573 0.178573 0.178573 0.178573 0.178573 0.178574 0.178574 0.178573 
0.178573 0.178573 0.178573 0.178573 0.178573 0.178573 0.178573 0.178573 0.178573 
0.178573 0.178573 0.178573 0.178573 0.178573 0.178573 0.178573 0.178573 0.178573 
0.178573 0.178573 0.178573 0.354839 0.351945 0.350629 0.343852 0.310055 0.211016 
0.180216 0.178619 0.178567 0.178574 0.178573 0.178573 0.332093 0.327798 0.321901 
0.312649 0.273673 0.199172 0.179597 0.178612 0.178568 0.178574 0.178573 0.178573 
0.291214 0.288556 0.285893 0.280764 0.254315 0.192542 0.17922 0.178595 0.178569 
0.178574 0.178573 0.178573 0.271767 0.269362 0.267498 0.261281 0.237805 0.186993 
0.178925 0.178575 0.17857 0.178574 0.178573 0.178573 0.261496 0.259021 0.256426 
0.248487 0.218308 0.182455 0.178701 0.178569 0.178572 0.178574 0.178573 0.178573 
0.253208 0.252336 0.249024 0.23286 0.195627 0.179585 0.178591 0.178569 0.178574 
0.178573 0.178573 0.178573 0.239927 0.238491 0.232969 0.203264 0.181817 0.178671 
0.178571 0.178574 0.178573 0.178573 0.178573 0.178573 0.209782 0.200441 0.18976 
0.181399 0.178765 0.178577 0.178574 0.178573 0.178573 0.178573 0.178573 0.178573 
0.181462 0.180272 0.179329 0.17868 0.178575 0.178577 0.178572 0.178573 0.178573 
0.178573 0.178573 0.178573 0.178685 0.178621 0.178583 0.178573 0.178574 0.178573 
0.178573 0.178573 0.178573 0.178573 0.178573 0.178573 0.178565 0.178565 0.178568 
0.178574 0.178574 0.178573 0.178573 0.178573 0.178573 0.178573 0.178573 0.178573 
0.178574 0.178575 0.178575 0.178573 0.178573 0.178573 0.178573 0.178573 0.178573 
0.178573 0.178573 0.178573 0.178573 0.178573 0.178573 0.178573 0.178573 0.178573 
0.178573 0.178573 0.178573 0.178573 0.178573 0.178573 0.343422 0.344237 0.346833 
0.348554 0.347947 0.270724 0.185764 0.178763 0.178574 0.178572 0.178574 0.178573 
0.346582 0.346275 0.346534 0.343782 0.323359 0.23347 0.182291 0.178664 0.178568 
0.178573 0.178574 0.178573 0.32633 0.324278 0.321855 0.31561 0.28664 0.211832 
0.180625 0.178631 0.178567 0.178573 0.178574 0.178573 0.288167 0.286389 0.284063 
0.280067 0.260733 0.199572 0.179713 0.178613 0.178567 0.178574 0.178573 0.178573 
0.265717 0.26408 0.262614 0.258891 0.243033 0.190311 0.179116 0.178585 0.17857 
0.178574 0.178573 0.178573 0.254262 0.252642 0.251137 0.246574 0.218305 0.182926 
0.178718 0.178571 0.178572 0.178574 0.178573 0.178573 0.246337 0.246118 0.242116 
0.225181 0.191165 0.179372 0.178583 0.178567 0.178574 0.178573 0.178573 0.178573 
0.227378 0.22128 0.210735 0.189999 0.180007 0.178591 0.178568 0.178575 0.178573 
0.178573 0.178573 0.178573 0.187144 0.184353 0.181789 0.179473 0.178596 0.178564 
0.178577 0.178573 0.178573 0.178573 0.178573 0.178573 0.179079 0.178878 0.1787 
0.178583 0.178569 0.178576 0.178573 0.178573 0.178573 0.178573 0.178573 0.178573 
0.178571 0.178563 0.178564 0.178569 0.178574 0.178574 0.178573 0.178573 0.178573 
0.178573 0.178573 0.178573 0.178568 0.17857 0.178574 0.178575 0.178573 0.178573 
0.178573 0.178573 0.178573 0.178573 0.178573 0.178573 0.178573 0.178573 0.178573 
0.178573 0.178573 0.178573 0.178573 0.178573 0.178573 0.178573 0.178573 0.178573 
0.325391 0.327202 0.329198 0.33353 0.343549 0.326389 0.207745 0.179733 0.178596 
0.178568 0.178574 0.178573 0.326464 0.327824 0.329073 0.330467 0.335232 0.306186 
0.194837 0.1792 0.178588 0.178568 0.178574 0.178573 0.322421 0.322927 0.322728 
0.321469 0.319839 0.264925 0.187113 0.17887 0.178578 0.178571 0.178574 0.178573 
0.312579 0.311304 0.310003 0.305746 0.289355 0.227139 0.182692 0.1787 0.178571 
0.178572 0.178574 0.178573 0.281817 0.279673 0.277996 0.274661 0.261283 0.206707 
0.180503 0.178635 0.178565 0.178573 0.178573 0.178573 0.259167 0.258528 0.257147 
0.255344 0.241039 0.19259 0.1793 0.17859 0.178569 0.178574 0.178573 0.178573 
0.247553 0.246345 0.245511 0.240863 0.213099 0.182632 0.178712 0.178572 0.178572 
0.178574 0.178573 0.178573 0.23643 0.235327 0.230563 0.211529 0.185774 0.179061 
0.178578 0.178568 0.178574 0.178573 0.178573 0.178573 0.202172 0.19654 0.189654 
0.182756 0.179137 0.178575 0.178566 0.178574 0.178573 0.178573 0.178573 0.178573 
0.180521 0.179898 0.179312 0.17878 0.178576 0.178566 0.178574 0.178573 0.178573 
0.178573 0.178573 0.178573 0.17865 0.178613 0.17858 0.178567 0.178569 0.178574 
0.178573 0.178573 0.178573 0.178573 0.178573 0.178573 0.178566 0.178566 0.178567 
0.178572 0.178575 0.178573 0.178573 0.178573 0.178573 0.178573 0.178573 0.178573 
0.178572 0.178572 0.178573 0.178573 0.178573 0.178573 0.178573 0.178573 0.178573 
0.178573 0.178573 0.178573 0.317341 0.319386 0.322406 0.327409 0.338918 0.34824 
0.258912 0.183948 0.178727 0.17857 0.178573 0.178574 0.314151 0.316294 0.319607 
0.325556 0.336886 0.341216 0.233732 0.181586 0.178652 0.178568 0.178574 0.178573 
0.314908 0.316438 0.319134 0.323001 0.329105 0.317805 0.210891 0.180127 0.178612 
0.178567 0.178574 0.178573 0.318724 0.318763 0.319113 0.318907 0.317149 0.284342 
0.194218 0.179293 0.178592 0.178568 0.178574 0.178573 0.30267 0.301904 0.300818 
0.297361 0.286077 0.239774 0.185596 0.178852 0.178579 0.17857 0.178574 0.178573 
0.272721 0.271289 0.270126 0.267335 0.256717 0.211548 0.181407 0.178668 0.178565 
0.178573 0.178574 0.178573 0.252059 0.251764 0.250987 0.249914 0.23599 0.192233 
0.179375 0.178588 0.178567 0.178574 0.178573 0.178573 0.242174 0.241007 0.238749 
0.231024 0.202827 0.181395 0.178668 0.17857 0.178573 0.178574 0.178573 0.178573 
0.219407 0.214939 0.207995 0.19328 0.181754 0.178789 0.178572 0.178571 0.178574 
0.178573 0.178573 0.178573 0.184478 0.183057 0.181506 0.179747 0.178728 0.17857 
0.178574 0.178575 0.178573 0.178573 0.178573 0.178573 0.178914 0.178815 0.178709 
0.178604 0.17857 0.178573 0.178575 0.178573 0.178573 0.178573 0.178573 0.178573 
0.178569 0.178568 0.178568 0.178568 0.178572 0.178575 0.178573 0.178573 0.178573 
0.178573 0.178573 0.178573 0.178573 0.178572 0.178572 0.178572 0.178573 0.178573 
0.178573 0.178573 0.178573 0.178573 0.178573 0.178573 0.309912 0.311599 0.313649 
0.317843 0.324921 0.333599 0.308569 0.198416 0.179384 0.178592 0.178567 0.178574 