# vtk DataFile Version 5.1
vtk output
ASCII
DATASET POLYDATA
POINTS 705 float
1.81747 1.12391 -0.59138 1.82327 1.12391 -0.597175 1.82747 1.12391 -0.60138 
1.83272 1.12391 -0.606626 1.83874 1.12391 -0.61265 1.84387 1.12391 -0.617779 
1.85271 1.12391 -0.62662 1.85706 1.12391 -0.630969 1.87117 1.12391 -0.64508 
1.87269 1.12391 -0.646595 1.89121 1.12391 -0.665124 1.89645 1.12391 -0.67036 
1.91321 1.12391 -0.687115 1.93176 1.12391 -0.70567 1.93932 1.12391 -0.713228 
1.97034 1.12391 -0.744248 1.9816 1.12391 -0.75551 2.0072 1.12391 -0.781109 
2.05101 1.12391 -0.824918 2.0523 1.12391 -0.82621 2.10308 1.12391 -0.876993 
2.15285 1.12391 -0.92676 2.16499 1.12391 -0.938899 2.23859 1.12391 -1.0125 
2.29601 1.12391 -1.06992 2.32609 1.12391 -1.1 1.81766 1.12313 -0.59079 
1.82405 1.12313 -0.597175 1.82766 1.12313 -0.60079 1.8335 1.12313 -0.606626 
1.83893 1.12313 -0.61206 1.84465 1.12313 -0.617779 1.8529 1.12313 -0.62603 
1.85784 1.12313 -0.630969 1.87136 1.12313 -0.64449 1.87347 1.12313 -0.646595 
1.89199 1.12313 -0.665124 1.89663 1.12313 -0.66976 1.91399 1.12313 -0.687115 
1.93194 1.12313 -0.70507 1.9401 1.12313 -0.713228 1.97112 1.12313 -0.744248 
1.98177 1.12313 -0.7549 2.00798 1.12313 -0.781109 2.05179 1.12313 -0.824918 
2.05245 1.12313 -0.82558 2.05261 1.12231 -0.824918 2.10387 1.12312 -0.876993 
2.15297 1.12312 -0.92609 2.16578 1.12312 -0.938899 2.23938 1.12312 -1.0125 
2.29609 1.12312 -1.06921 2.32688 1.12312 -1.1 1.81795 1.12194 -0.58989 
1.81819 1.12095 -0.589143 1.82524 1.12194 -0.597175 1.82795 1.12194 -0.59989 
1.83469 1.12194 -0.606626 1.83922 1.12194 -0.61116 1.84584 1.12194 -0.617779 
1.85319 1.12194 -0.62513 1.85903 1.12194 -0.630969 1.87164 1.12194 -0.64358 
1.87466 1.12194 -0.646595 1.89318 1.12194 -0.665124 1.89691 1.12194 -0.66885 
1.91517 1.12194 -0.687115 1.93221 1.12194 -0.70415 1.94129 1.12194 -0.713228 
1.97231 1.12194 -0.744248 1.98202 1.12194 -0.75396 2.00917 1.12194 -0.781109 
2.05268 1.12194 -0.82462 2.05298 1.12194 -0.824918 2.10505 1.12194 -0.876993 
2.15315 1.12194 -0.92509 2.16696 1.12194 -0.938899 2.24056 1.12194 -1.0125 
2.2962 1.12194 -1.06814 2.32806 1.12194 -1.1 1.8184 1.12011 -0.58851 
1.81903 1.12011 -0.589143 1.82706 1.12011 -0.597175 1.8284 1.12011 -0.59851 
1.82883 1.11834 -0.597175 1.83652 1.12011 -0.606626 1.83967 1.12011 -0.60978 
1.84767 1.12011 -0.617779 1.85364 1.12011 -0.62375 1.86086 1.12011 -0.630969 
1.87208 1.12011 -0.64219 1.87648 1.12011 -0.646595 1.895 1.12012 -0.665124 
1.89735 1.12012 -0.66747 1.917 1.12012 -0.687115 1.93263 1.12012 -0.70275 
1.94311 1.12012 -0.713228 1.97412 1.12013 -0.744248 1.98241 1.12013 -0.75254 
2.01097 1.12014 -0.781109 2.05303 1.12015 -0.82318 2.05477 1.12015 -0.824918 
2.10684 1.12016 -0.876993 2.15343 1.12016 -0.92359 2.16874 1.12016 -0.938899 
2.24232 1.12018 -1.0125 2.29637 1.12019 -1.06656 2.32981 1.12019 -1.1 
1.81908 1.11732 -0.5864 1.82182 1.11732 -0.589143 1.82908 1.11733 -0.59641 
1.82985 1.11733 -0.597175 1.8393 1.11733 -0.606626 1.84035 1.11733 -0.60768 
1.84069 1.11593 -0.606626 1.85044 1.11734 -0.617779 1.85432 1.11734 -0.62166 
1.86362 1.11734 -0.630969 1.87276 1.11735 -0.64011 1.87924 1.11736 -0.646595 
1.89775 1.11737 -0.665124 1.898 1.11737 -0.66537 1.89808 1.11705 -0.665124 
1.91973 1.11738 -0.687115 1.93326 1.11739 -0.70065 1.94583 1.1174 -0.713228 
1.97683 1.11742 -0.744248 1.98301 1.11742 -0.75043 2.01367 1.11744 -0.781109 
2.05355 1.11746 -0.82101 2.05746 1.11746 -0.824918 2.1095 1.11749 -0.876993 
2.15385 1.11752 -0.92137 2.17137 1.11753 -0.938899 2.24492 1.11758 -1.0125 
2.29662 1.11761 -1.06423 2.33237 1.11763 -1.1 1.82011 1.11314 -0.58325 
1.82042 1.11187 -0.582287 1.826 1.11315 -0.589143 1.83011 1.11315 -0.59326 
1.83145 1.1077 -0.589143 1.83402 1.11316 -0.597175 1.84137 1.11317 -0.60454 
1.84345 1.11317 -0.606626 1.85459 1.11319 -0.617779 1.85534 1.11319 -0.61853 
1.85558 1.1122 -0.617779 1.86777 1.1132 -0.630969 1.87376 1.11321 -0.63697 
1.88337 1.11323 -0.646595 1.89899 1.11325 -0.66224 1.90187 1.11325 -0.665124 
1.92383 1.11329 -0.687115 1.93421 1.1133 -0.69751 1.9499 1.11333 -0.713228 
1.98087 1.11338 -0.744248 1.9839 1.11338 -0.74728 1.98477 1.10948 -0.744248 
2.01768 1.11343 -0.781109 2.05435 1.11348 -0.81783 2.06143 1.11349 -0.824918 
2.11342 1.11357 -0.876993 2.15448 1.11363 -0.91811 2.17524 1.11366 -0.938899 
2.24873 1.11377 -1.0125 2.29701 1.11384 -1.06085 2.3361 1.1139 -1.1 
1.82162 1.10696 -0.57858 1.82233 1.10408 -0.576403 1.82532 1.10697 -0.582287 
1.83162 1.10699 -0.58861 1.83368 1.09861 -0.582287 1.83215 1.10699 -0.589143 
1.84016 1.10701 -0.597175 1.84288 1.10702 -0.5999 1.84377 1.1034 -0.597175 
1.84959 1.10704 -0.606626 1.85684 1.10706 -0.6139 1.86071 1.10707 -0.617779 
1.87385 1.10712 -0.630969 1.87525 1.10712 -0.63237 1.8757 1.10527 -0.630969 
1.88943 1.10717 -0.646595 1.90045 1.1072 -0.65765 1.9079 1.10722 -0.665124 
1.92982 1.10729 -0.687115 1.93562 1.10731 -0.69293 1.93741 1.09971 -0.687115 
1.95586 1.10737 -0.713228 1.98522 1.10746 -0.74268 1.98678 1.10746 -0.744248 
2.02353 1.10757 -0.781109 2.05551 1.10767 -0.81318 2.06721 1.10771 -0.824918 
2.11913 1.10787 -0.876993 2.15542 1.10798 -0.9134 2.18084 1.10806 -0.938899 
2.25421 1.10829 -1.0125 2.29757 1.10842 -1.05599 2.34145 1.10855 -1.1 
1.8267 1.08622 -0.562918 1.82542 1.09144 -0.566862 1.8238 1.09806 -0.57186 
1.82398 1.09733 -0.571312 1.82832 1.09809 -0.576403 1.8338 1.09812 -0.58192 
1.83559 1.09081 -0.576403 1.83417 1.09812 -0.582287 1.84098 1.09816 -0.589143 
1.84506 1.09818 -0.59324 1.8464 1.09274 -0.589143 1.84897 1.0982 -0.597175 
1.85837 1.09826 -0.606626 1.859 1.09826 -0.60726 1.85921 1.09742 -0.606626 
1.86946 1.09832 -0.617779 1.87739 1.09837 -0.62576 1.87999 1.08779 -0.617779 
1.88257 1.0984 -0.630969 1.89811 1.09849 -0.646595 1.90255 1.09851 -0.65106 
1.90397 1.09262 -0.646595 1.91653 1.09859 -0.665124 1.93764 1.09871 -0.68635 
1.9384 1.09871 -0.687115 1.96437 1.09886 -0.713228 1.98711 1.09899 -0.7361 
1.99521 1.09904 -0.744248 2.03186 1.09925 -0.781109 2.05719 1.09939 -0.80658 
2.07542 1.09949 -0.824918 2.1272 1.09979 -0.876993 2.15675 1.09996 -0.90671 
2.18876 1.10014 -0.938899 2.26194 1.10056 -1.0125 2.29838 1.10077 -1.04915 
2.34894 1.10106 -1.1 1.82991 1.07309 -0.553 1.82891 1.07718 -0.55609 
1.82682 1.08572 -0.56254 1.82785 1.08151 -0.559363 1.82719 1.08572 -0.562918 
1.8311 1.08576 -0.566862 1.83551 1.0858 -0.571312 1.83998 1.07293 -0.562918 
1.8387 1.07816 -0.566862 1.83682 1.08581 -0.57263 1.83725 1.08406 -0.571312 
1.84056 1.08585 -0.576403 1.84638 1.0859 -0.582287 1.85056 1.07584 -0.576403 
1.84808 1.08592 -0.584 1.84864 1.08365 -0.582287 1.85318 1.08597 -0.589143 
1.86113 1.08604 -0.597175 1.86492 1.07422 -0.589143 1.86201 1.08605 -0.59806 
1.8623 1.08488 -0.597175 1.87049 1.08613 -0.606626 1.88037 1.08623 -0.6166 
1.88361 1.07302 -0.606626 1.88154 1.08624 -0.617779 1.8946 1.08637 -0.630969 
1.90546 1.08648 -0.64194 1.90896 1.07201 -0.630969 1.91007 1.08652 -0.646595 
1.92843 1.0867 -0.665124 1.94045 1.08681 -0.67726 1.95021 1.08691 -0.687115 
1.97607 1.08716 -0.713228 1.98973 1.08729 -0.72702 2.00679 1.08745 -0.744248 
2.0433 1.0878 -0.781109 2.05952 1.08796 -0.79748 2.08669 1.08822 -0.824918 
2.13827 1.08872 -0.876993 2.15861 1.08892 -0.89753 2.19958 1.08932 -0.938899 
2.27248 1.09002 -1.0125 2.2995 1.09028 -1.03978 2.35915 1.09085 -1.1 
1.83081 1.06942 -0.55023 1.83088 1.06912 -0.55 1.83354 1.06946 -0.553 
1.83658 1.06951 -0.55609 1.83981 1.06955 -0.559363 1.84419 1.05581 -0.55 
1.84321 1.05979 -0.553 1.84221 1.06388 -0.55609 1.84081 1.06957 -0.56038 
1.84114 1.06822 -0.559363 1.84331 1.06961 -0.562918 1.8472 1.06967 -0.566862 
1.85158 1.06973 -0.571312 1.85612 1.05324 -0.559363 1.85496 1.05796 -0.562918 
1.85367 1.06319 -0.566862 1.85206 1.06974 -0.5718 1.85222 1.06909 -0.571312 
1.85659 1.06981 -0.576403 1.86239 1.0699 -0.582287 1.87074 1.05057 -0.571312 
1.86908 1.05733 -0.576403 1.86597 1.06995 -0.58592 1.86716 1.06513 -0.582287 
1.86914 1.07 -0.589143 1.87706 1.07012 -0.597175 1.88429 1.07023 -0.60452 
1.88667 1.06051 -0.597175 1.88637 1.07026 -0.606626 1.89736 1.07042 -0.617779 
1.9093 1.0706 -0.6299 1.91317 1.05461 -0.617779 1.91035 1.07062 -0.630969 
1.92575 1.07085 -0.646595 1.94401 1.07112 -0.665124 1.94415 1.07112 -0.66527 
1.94419 1.07093 -0.665124 1.96567 1.07144 -0.687115 1.9914 1.07183 -0.713228 
1.99319 1.07186 -0.71505 1.99372 1.06951 -0.713228 2.02196 1.07229 -0.744248 
2.05827 1.07284 -0.781109 2.06259 1.0729 -0.78549 2.0637 1.06741 -0.781109 
2.10144 1.07348 -0.824918 2.15275 1.07425 -0.876993 2.16105 1.07437 -0.88542 
2.16274 1.06425 -0.876993 2.21374 1.07516 -0.938899 2.28625 1.07625 -1.0125 
2.30097 1.07647 -1.02744 2.30273 1.05977 -1.0125 2.37246 1.07754 -1.1 
1.85039 1.04961 -0.55 1.85333 1.04967 -0.553 1.85635 1.04974 -0.55609 
1.85917 1.04083 -0.55 1.85819 1.04481 -0.553 1.85698 1.04975 -0.55673 
1.85719 1.0489 -0.55609 1.85956 1.0498 -0.559363 1.86304 1.04988 -0.562918 
1.8669 1.04996 -0.566862 1.87569 1.0304 -0.55609 1.87463 1.03473 -0.559363 
1.87347 1.03945 -0.562918 1.87087 1.05004 -0.57091 1.87219 1.04467 -0.566862 
1.87126 1.05005 -0.571312 1.87625 1.05015 -0.576403 1.88201 1.05028 -0.582287 
1.88872 1.05042 -0.589143 1.89338 1.03302 -0.576403 1.89148 1.04081 -0.582287 
1.88913 1.05043 -0.58956 1.88926 1.04988 -0.589143 1.89659 1.05059 -0.597175 
1.90584 1.05079 -0.606626 1.91405 1.05096 -0.61501 1.91671 1.03992 -0.606626 
1.91676 1.05102 -0.617779 1.92968 1.05129 -0.630969 1.94498 1.05161 -0.646595 
1.94872 1.05169 -0.65041 1.94989 1.04671 -0.646595 1.96313 1.052 -0.665124 
1.98466 1.05246 -0.687115 1.99747 1.05273 -0.7002 2.0012 1.03592 -0.687115 
2.01023 1.053 -0.713228 2.0406 1.05364 -0.744248 2.06638 1.05419 -0.77057 
2.0767 1.05441 -0.781109 2.11961 1.05531 -0.824918 2.16408 1.05625 -0.87033 
2.1706 1.05639 -0.876993 2.23123 1.05767 -0.938899 2.30279 1.05919 -1.01198 
2.3033 1.0592 -1.0125 2.38899 1.06101 -1.1 1.87278 1.02722 -0.55 
1.8757 1.0273 -0.553 1.87767 1.02233 -0.55 1.87645 1.02732 -0.55377 
[...]
POINT_DATA 705
FIELD FieldData 5
pressure 1 705 float
0.305645 0.30498 0.304371 0.303411 0.302423 0.301378 0.299522 0.298321 0.294585 
0.294109 0.288903 0.288044 0.285484 0.284028 0.282563 0.276027 0.273564 0.268015 
0.263913 0.2637 0.252383 0.241635 0.238418 0.216747 0.199006 0.191684 0.304385 
0.303723 0.303264 0.302345 0.301551 0.300501 0.298929 0.297664 0.294143 0.29348 
0.288245 0.287501 0.284911 0.28346 0.281876 0.275513 0.273197 0.267534 0.263459 
0.26335 0.263228 0.251921 0.241287 0.237895 0.216357 0.198921 0.191492 0.303842 
0.303131 0.303195 0.302865 0.301832 0.301171 0.299967 0.298571 0.297087 0.293849 
0.292911 0.287829 0.287222 0.284459 0.283101 0.281351 0.275138 0.273023 0.267134 
0.263129 0.26308 0.251532 0.241107 0.237452 0.216018 0.198976 0.19133 0.30245 
0.302439 0.301965 0.301825 0.300975 0.300681 0.300237 0.298807 0.297686 0.295892 
0.293082 0.291749 0.287022 0.286654 0.283769 0.282489 0.280454 0.274425 0.272631 
0.266453 0.262562 0.262275 0.250803 0.240723 0.236681 0.215376 0.198958 0.191026 
0.300422 0.300508 0.300383 0.300299 0.299191 0.299045 0.2984 0.297264 0.296541 
0.294286 0.292095 0.290206 0.285946 0.285908 0.285814 0.282743 0.281616 0.279162 
0.273437 0.272113 0.265493 0.261758 0.26111 0.249795 0.24021 0.235588 0.214492 
0.198956 0.190605 0.297194 0.296247 0.297729 0.297777 0.294468 0.297489 0.296836 
0.296434 0.294879 0.294741 0.294352 0.291834 0.29049 0.287831 0.284487 0.283694 
0.281201 0.280301 0.277196 0.271925 0.271286 0.27048 0.264013 0.260521 0.259331 
0.248237 0.239398 0.233942 0.213165 0.198901 0.189978 0.291693 0.289606 0.292742 
0.293918 0.288477 0.293948 0.293885 0.293698 0.291958 0.292579 0.291653 0.290857 
0.288508 0.288224 0.287552 0.284563 0.28242 0.280451 0.278929 0.278399 0.276055 
0.274326 0.269811 0.269407 0.261836 0.258707 0.256704 0.245981 0.238205 0.231551 
0.211277 0.198772 0.18909 0.281987 0.282256 0.285064 0.284701 0.28643 0.28811 
0.284004 0.288113 0.28862 0.288805 0.285968 0.288118 0.288065 0.287984 0.287629 
0.285329 0.284102 0.279064 0.282389 0.280062 0.279343 0.277187 0.275874 0.275537 
0.275426 0.270207 0.266891 0.264846 0.258654 0.25606 0.252841 0.242689 0.236419 
0.228107 0.208608 0.198471 0.187847 0.280887 0.281273 0.282065 0.28125 0.281609 
0.280042 0.281049 0.268081 0.275841 0.281333 0.280448 0.280375 0.281217 0.27345 
0.281389 0.280103 0.280099 0.280746 0.271509 0.280712 0.280111 0.277982 0.277791 
0.268833 0.277422 0.273952 0.273326 0.26499 0.272168 0.269759 0.26948 0.267879 
0.264528 0.262635 0.258437 0.254153 0.252366 0.247328 0.238101 0.233839 0.223314 
0.205004 0.197867 0.186173 0.281108 0.281029 0.261045 0.253712 0.255836 0.205649 
0.206211 0.232119 0.257369 0.252709 0.259647 0.25989 0.264087 0.210272 0.226895 
0.246269 0.26433 0.263257 0.262733 0.264183 0.219479 0.239384 0.265537 0.258459 
0.26513 0.264034 0.265557 0.253885 0.265309 0.261993 0.263565 0.247611 0.263545 
0.259619 0.261859 0.261854 0.261762 0.25783 0.257035 0.256795 0.255878 0.249916 
0.248011 0.247482 0.245645 0.239766 0.231928 0.23022 0.227544 0.216909 0.200352 
0.196744 0.194891 0.184028 0.201713 0.199789 0.202357 0.195655 0.196431 0.202522 
0.200635 0.205191 0.210317 0.214364 0.180727 0.183567 0.189475 0.217919 0.201729 
0.21887 0.227675 0.231513 0.235223 0.199213 0.213629 0.235418 0.234346 0.239147 
0.239684 0.2422 0.225741 0.243537 0.242859 0.245208 0.245739 0.24157 0.246222 
0.245395 0.245082 0.234517 0.244121 0.239363 0.238501 0.238037 0.230044 0.224232 
0.223281 0.208881 0.194766 0.194673 0.18146 0.183477 0.180764 0.179817 0.180106 
0.180017 0.181012 0.183645 0.18721 0.191049 0.191902 0.179596 0.181507 0.183653 
0.186173 0.192284 0.190096 0.195483 0.200029 0.20453 0.20653 0.180187 0.189582 
0.206789 0.205047 0.214324 0.217644 0.22 0.194244 0.220639 0.216821 0.226539 
0.227923 0.229816 0.208416 0.230699 0.228239 0.227036 0.226677 0.220078 0.224562 
0.218587 0.215189 0.211748 0.199484 0.190112 0.187254 0.178643 0.178995 0.17902 
0.176866 0.178992 0.178282 0.17875 0.178661 0.178459 0.178304 0.178179 0.179037 
0.168648 0.170246 0.17214 0.17864 0.175484 0.179171 0.183206 0.187325 0.189577 
0.19075 0.177492 0.192364 0.200625 0.205095 0.208183 0.208252 0.211672 0.210329 
0.21085 0.211877 0.209123 0.20602 0.205013 0.200047 0.198983 0.189301 0.184209 
0.179474 0.175853 0.169793 0.169507 0.168935 0.168826 0.15911 0.161309 0.16344 
0.16864 0.166039 0.168638 0.168085 0.167509 0.167429 0.167774 0.168824 0.168689 
0.156936 0.168695 0.167334 0.170796 0.175589 0.179173 0.181662 0.181784 0.180426 
0.188087 0.190158 0.19131 0.191416 0.187307 0.194241 0.193199 0.192315 0.192495 
0.185946 0.178981 0.177198 0.171422 0.17203 0.173407 0.156854 0.155932 0.154987 
0.154334 0.153584 0.152781 0.151665 0.150441 0.149336 0.128812 0.137612 0.149272 
0.14837 0.148647 0.148707 0.150143 0.151868 0.153221 0.153331 0.151925 0.160345 
0.165798 0.168469 0.169851 0.150379 0.173963 0.177201 0.178337 0.178164 0.178819 
0.17364 0.169334 0.16946 0.165485 0.17149 0.134479 0.133379 0.132383 0.131105 
0.129786 0.128207 0.118367 0.126922 0.122809 0.126732 0.126083 0.12572 0.125594 
0.125947 0.126659 0.126801 0.12694 0.125453 0.133969 0.140978 0.146093 0.149734 
0.149943 0.159041 0.162577 0.165393 0.165397 0.163987 0.16703 0.162866 0.160288 
0.161656 0.160547 0.170205 0.169707 0.118332 0.117781 0.116932 0.11608 0.112887 
0.115754 0.115078 0.11546 0.115033 0.114609 0.114132 0.113638 0.113427 0.113565 
0.112454 0.112566 0.11081 0.116002 0.121677 0.127583 0.131361 0.13351 0.139365 
0.147475 0.151205 0.153371 0.155841 0.15761 0.154541 0.153034 0.156119 0.157152 
0.168302 0.11126 0.111267 0.11067 0.111226 0.111212 0.111029 0.111137 0.111001 
0.110823 0.11048 0.110153 0.10964 0.109154 0.108713 0.108239 0.108195 0.108093 
0.110699 0.11517 0.119402 0.122055 0.122567 0.119695 0.13241 0.139527 0.143127 
0.144538 0.149249 0.150727 0.148739 0.147986 0.15272 0.155046 0.165197 0.110494 
0.110739 0.110693 0.110784 0.110766 0.110686 0.110483 0.110214 0.10974 0.109173 
0.108435 0.108169 0.107571 0.108816 0.112134 0.115072 0.11676 0.11809 0.128013 
0.134238 0.137538 0.138392 0.144708 0.145878 0.144418 0.144103 0.150475 0.153721 
0.162896 0.110507 0.110774 0.110544 0.110572 0.110553 0.110504 0.110341 0.110133 
0.109664 0.109069 0.108782 0.107919 0.107388 0.108214 0.110886 0.112683 0.113924 
0.116717 0.125401 0.130938 0.133928 0.134387 0.141765 0.14267 0.141493 0.141389 
0.149015 0.152904 0.16127 
velocity_u 1 705 float
0.861404 0.863633 0.865078 0.867083 0.869632 0.871968 0.875294 0.877178 0.883126 
0.883855 0.890891 0.891928 0.895208 0.897337 0.898865 0.904432 0.906308 0.911143 
0.915521 0.915724 0.926443 0.935464 0.938329 0.95698 0.972697 0.979674 0.862484 
0.864794 0.865959 0.86815 0.870496 0.87315 0.876392 0.8786 0.884302 0.885299 
0.891937 0.892814 0.89604 0.898137 0.899815 0.905378 0.907067 0.91176 0.915917 
0.916023 0.916167 0.926996 0.935835 0.938844 0.957421 0.972731 0.979727 0.863273 
0.864022 0.865754 0.866599 0.869081 0.871034 0.874098 0.877021 0.879653 0.884924 
0.886328 0.892605 0.893287 0.896575 0.898557 0.900427 0.905855 0.907369 0.912169 
0.916273 0.916321 0.92749 0.936105 0.939333 0.957872 0.972764 0.979896 0.864722 
0.864906 0.86733 0.867718 0.868787 0.870569 0.8719 0.875554 0.877925 0.88115 
0.885728 0.887716 0.893442 0.893849 0.897224 0.898953 0.901064 0.906148 0.907448 
0.912613 0.916768 0.917058 0.928159 0.936452 0.940009 0.958447 0.972781 0.98015 
0.867071 0.867656 0.869472 0.869754 0.872818 0.873257 0.873995 0.877745 0.879267 
0.883299 0.8868 0.889557 0.894457 0.894497 0.894546 0.898012 0.899402 0.90187 
0.906504 0.907503 0.91332 0.917502 0.918168 0.929126 0.936948 0.940993 0.959231 
0.972792 0.980541 0.871348 0.872709 0.871975 0.872738 0.877291 0.87387 0.875924 
0.876689 0.880849 0.881124 0.881488 0.886097 0.888123 0.891811 0.895297 0.896145 
0.89893 0.899923 0.902944 0.907109 0.907639 0.907998 0.914601 0.918696 0.919934 
0.930567 0.937697 0.942433 0.960343 0.972825 0.98113 0.879159 0.882308 0.87846 
0.878032 0.885815 0.878089 0.879342 0.879916 0.882192 0.88193 0.884097 0.885506 
0.889367 0.889746 0.890205 0.89432 0.896311 0.898249 0.900035 0.900588 0.90144 
0.904526 0.908419 0.908795 0.916931 0.920599 0.922654 0.93266 0.93882 0.944525 
0.96194 0.972921 0.981987 0.892681 0.893407 0.889571 0.890138 0.888123 0.886367 
0.892634 0.886369 0.886404 0.886481 0.89071 0.887379 0.888442 0.888557 0.889066 
0.891577 0.893113 0.899307 0.894933 0.897291 0.897905 0.900084 0.901104 0.90175 
0.901871 0.907513 0.911374 0.913592 0.9207 0.923479 0.926604 0.935586 0.940461 
0.947493 0.964192 0.973147 0.983209 0.77564 0.868549 0.892035 0.887508 0.893351 
0.897313 0.896844 0.909991 0.902985 0.896598 0.897789 0.897644 0.897059 0.906368 
0.896971 0.898587 0.898453 0.898139 0.908757 0.898197 0.898947 0.900955 0.900817 
0.911499 0.9011 0.903913 0.904083 0.914795 0.905047 0.907265 0.90795 0.909802 
0.914151 0.916456 0.921008 0.925743 0.92737 0.931868 0.939491 0.942786 0.951665 
0.967316 0.973669 0.984918 0.619678 0.606344 0.796096 0.897075 0.916255 0.656328 
0.839366 0.91046 0.9165 0.918456 0.918915 0.919901 0.916493 0.951702 0.947341 
0.932387 0.916263 0.917262 0.917676 0.916456 0.957783 0.939511 0.915158 0.921932 
0.915486 0.916486 0.914976 0.926194 0.915251 0.917712 0.916327 0.931687 0.916457 
0.920157 0.918117 0.918124 0.918218 0.922238 0.923382 0.923604 0.924448 0.930009 
0.931485 0.931909 0.933376 0.938416 0.94459 0.945948 0.948304 0.957405 0.971474 
0.974714 0.976533 0.987182 0.654777 0.837922 0.925185 0.653206 0.837422 0.931388 
0.925999 0.955039 0.961383 0.961156 0.926277 0.966356 0.977678 0.959082 0.971971 
0.958365 0.950673 0.947562 0.943599 0.976418 0.963721 0.943423 0.944368 0.940513 
0.940377 0.937293 0.953318 0.936158 0.938133 0.935685 0.935104 0.938749 0.933778 
0.934531 0.934661 0.943247 0.935459 0.939222 0.939515 0.93987 0.946552 0.951243 
0.952157 0.964861 0.976666 0.976749 0.98999 0.646314 0.830437 0.646284 0.854013 
0.830523 0.922944 0.962396 0.977629 0.980559 0.982483 0.915746 0.960988 0.980123 
0.984986 0.982269 0.984171 0.979638 0.975847 0.973025 0.971033 0.993874 0.986925 
0.970824 0.972393 0.962774 0.962121 0.959293 0.981724 0.958539 0.961984 0.95111 
0.949265 0.947256 0.967387 0.946609 0.949 0.949751 0.949986 0.956259 0.952019 
0.956928 0.959746 0.963086 0.973835 0.981724 0.984338 0.993251 0.636084 0.818025 
0.635563 0.868022 0.81796 0.915825 0.962219 0.983808 0.991684 0.994614 0.994238 
0.994046 1.00136 1.00194 0.994923 0.998026 0.994759 0.991599 0.987434 0.985175 
0.984291 0.998117 0.982806 0.974548 0.970749 0.967613 0.967549 0.964429 0.964709 
0.964727 0.964025 0.966895 0.969345 0.97015 0.975095 0.975854 0.98385 0.988094 
0.992413 0.996636 0.636094 0.820024 0.920103 0.969785 0.6326 0.818329 0.919427 
0.993925 0.969467 0.994057 1.00407 1.00811 1.00855 1.00843 1.00783 1.00806 
1.02178 1.00806 1.00963 1.00607 1.00145 0.998258 0.995585 0.995414 0.996915 
0.987758 0.985543 0.983135 0.983069 0.987165 0.981847 0.981153 0.982302 0.982747 
0.988988 0.994292 0.995737 1.002 1.00031 0.999876 0.633079 0.820221 0.921834 
0.972363 1.0015 1.0169 1.02481 1.02824 1.03019 1.04818 1.04191 1.0303 
1.03122 1.03151 1.03197 1.03072 1.02884 1.02708 1.02695 1.02834 1.01884 
1.01303 1.00872 1.00621 1.02726 1.00194 0.999431 0.99606 0.996247 0.996607 
1.00145 1.00427 1.00406 1.00772 1.0023 0.652991 0.843213 0.941025 0.990518 
1.02042 1.03984 1.03739 1.04785 1.04664 1.05031 1.05414 1.05513 1.05537 
1.05493 1.0536 1.05344 1.05327 1.05475 1.04534 1.03842 1.03363 1.02799 
1.02774 1.01796 1.01423 1.00993 1.00991 1.01148 1.01133 1.01292 1.01424 
1.01222 1.01343 1.00414 1.00497 0.675322 0.865856 0.967574 1.01586 0.979483 
1.02397 1.01877 1.04185 1.05653 1.06365 1.06611 1.06703 1.06682 1.06629 
1.06581 1.06576 1.06764 1.06332 1.05769 1.05219 1.04811 1.04533 1.03839 
1.03062 1.02633 1.02356 1.02071 1.02287 1.02223 1.02277 1.01823 1.0174 
1.00657 0.687941 0.879216 0.688913 0.88997 0.879294 0.986031 1.03281 1.05394 
1.065 1.06938 1.07011 1.06971 1.07073 1.07074 1.07106 1.07244 1.07114 
1.06887 1.06517 1.0601 1.05746 1.05688 1.06018 1.04574 1.03923 1.03505 
1.03328 1.02784 1.02932 1.02837 1.0286 1.02214 1.01999 1.0101 0.689382 
0.88033 0.988526 1.03686 1.05877 1.06785 1.07159 1.07166 1.0714 1.07206 
1.07276 1.07306 1.07356 1.07233 1.06988 1.06538 1.06344 1.0621 1.05148 
1.04533 1.04155 1.04048 1.03309 1.03325 1.0331 1.03316 1.02499 1.0218 
1.01278 0.681594 0.873042 0.98213 1.03332 1.05653 1.06625 1.06999 1.07052 
1.07076 1.07154 1.07187 1.07287 1.0729 1.07262 1.07083 1.06757 1.06605 
1.06303 1.05357 1.04796 1.04436 1.04377 1.03524 1.03508 1.03542 1.03545 
1.02645 1.02277 1.0146 
velocity_v 1 705 float
0.0840033 0.0845664 0.0847566 0.0845879 0.0842296 0.0840929 0.0831118 0.0824778 0.0795416 
0.0795159 0.0783782 0.0779316 0.0774753 0.0750629 0.0744619 0.0704856 0.0687728 0.0650287 
0.0585796 0.0583592 0.0484523 0.0388021 0.0364253 0.0207 0.010562 0.0077752 0.0822102 
0.0832319 0.0834513 0.0833459 0.08299 0.0827265 0.0816889 0.0809242 0.0783385 0.0783578 
0.0776969 0.077384 0.0771475 0.0746656 0.0739402 0.0698229 0.0682735 0.0646614 0.0581108 
0.0579946 0.0578027 0.0478275 0.0383661 0.0358585 0.0200224 0.010193 0.00744178 0.0803792 
0.0786356 0.0818883 0.0821123 0.0821506 0.0819098 0.0816333 0.0807447 0.0798662 0.0775615 
0.0776221 0.0770389 0.0767923 0.0766063 0.0742802 0.0734831 0.0693563 0.0679471 0.0642373 
0.0577109 0.0576575 0.0473534 0.0380651 0.0353593 0.0196251 0.0100649 0.00724736 0.0769611 
0.0772462 0.079481 0.0796409 0.0775087 0.0800239 0.0799282 0.0796965 0.0790707 0.078084 
0.0761445 0.0762918 0.0757935 0.0756607 0.0756866 0.0735471 0.0726257 0.0684981 0.0672998 
0.0634411 0.0571296 0.0568165 0.0464876 0.0374651 0.0344701 0.0188949 0.00976352 0.00688442 
0.071819 0.0733599 0.0760474 0.0761896 0.0772297 0.0772292 0.0759056 0.0770907 0.0767747 
0.0756679 0.074222 0.0745525 0.0740594 0.0740473 0.0738509 0.0743305 0.0725027 0.0714207 
0.0673032 0.0664121 0.0623229 0.0563381 0.0556345 0.0453215 0.0366726 0.0332418 0.0179362 
0.00938265 0.00639894 0.0640081 0.0620886 0.06814 0.069983 0.0630405 0.0710953 0.0725418 
0.0730388 0.0733468 0.07331 0.0725477 0.0721085 0.0712611 0.0719802 0.0715737 0.0717938 
0.0723001 0.0709122 0.0695809 0.0654224 0.0649875 0.0635816 0.0606049 0.055114 0.0538343 
0.0435212 0.0354495 0.0313946 0.0164751 0.00876364 0.00566209 0.0530947 0.0503298 0.0569439 
0.0619106 0.0540765 0.062236 0.0651652 0.0658108 0.0629662 0.0674473 0.0678501 0.0690131 
0.0673916 0.0672309 0.0662 0.0686627 0.0682853 0.0689083 0.0693947 0.0686153 0.0656802 
0.0668884 0.0628572 0.0626712 0.0581051 0.053336 0.0512193 0.0409492 0.0336974 0.0287282 
0.0143977 0.00782137 0.00460322 0.0695698 0.0520605 0.0458394 0.0460708 0.050132 0.0537391 
0.0549141 0.0540573 0.0578356 0.0591171 0.0580959 0.0612293 0.0617595 0.0617874 0.0615189 
0.0646753 0.0636714 0.0618829 0.0641426 0.0647589 0.0644513 0.0625002 0.065562 0.0653011 
0.0652585 0.0630081 0.0597964 0.0588318 0.0544497 0.0507026 0.0474058 0.0372125 0.0311751 
0.024932 0.0114344 0.00634676 0.00309382 0.110793 0.113277 0.0725942 0.0883057 0.0707262 
0.0630078 0.0602801 0.0781113 0.0685361 0.0599846 0.0614361 0.0601291 0.0600099 0.0669839 
0.0600795 0.0610229 0.0608552 0.0610504 0.064917 0.0610672 0.0611554 0.0622474 0.0617992 
0.0628801 0.0618777 0.0625289 0.0616096 0.0600171 0.0612966 0.0620852 0.0614634 0.0603799 
0.0577737 0.0557522 0.0536628 0.0492864 0.0468916 0.0420105 0.0319921 0.0277084 0.0197222 
0.0073602 0.00404097 0.00103842 0.0775865 0.075445 0.101641 0.101559 0.0886984 0.0661451 
0.0926144 0.0968526 0.0862501 0.0884215 0.0805395 0.0772871 0.0741292 0.0849001 0.0834884 
0.0791305 0.0738518 0.0742254 0.0723985 0.0697428 0.0789908 0.0749488 0.0681856 0.070245 
0.0674242 0.0660442 0.0640113 0.0661452 0.0635426 0.0626774 0.060149 0.0617204 0.0598286 
0.0587505 0.0574957 0.0574799 0.0574275 0.0543384 0.0509973 0.0507046 0.0499253 0.0469141 
0.042132 0.0414765 0.0393085 0.0345861 0.0247923 0.0229995 0.0194601 0.0128285 0.00191222 
0.000432514 -0.00483458 -0.00164685 0.0554367 0.0705854 0.0776832 0.0486045 0.0657832 0.0787285 
0.0772311 0.0824829 0.0818427 0.0807592 0.0629774 0.0751114 0.0797735 0.0791489 0.0808768 
0.0789369 0.0754226 0.072827 0.0698709 0.0735246 0.0720852 0.0696834 0.0698119 0.0666514 
0.0651092 0.0625243 0.0634525 0.0611667 0.057595 0.0550517 0.0544811 0.0537375 0.050576 
0.0472622 0.0453669 0.0402911 0.0426638 0.038207 0.0343804 0.0322593 0.0249186 0.0165913 
0.0152488 0.00409077 -0.00501752 -0.00507225 -0.00490732 0.0401145 0.0521307 0.0392226 0.0543908 
0.0519021 0.0600318 0.06972 0.0744001 0.0756371 0.0739691 0.0469502 0.059473 0.0677243 
0.0720323 0.07342 0.0733801 0.0718443 0.0685869 0.0657127 0.063836 0.0613915 0.062384 
0.0636535 0.0635673 0.0597638 0.0553714 0.0527695 0.0479332 0.0521977 0.0516517 0.0477588 
0.0421197 0.0389008 0.029613 0.0377935 0.0316778 0.0266354 0.0251091 0.0191013 0.0194326 
0.0127429 0.00791653 0.00319415 -0.00660082 -0.0123256 -0.0135671 -0.00857291 0.0278638 0.0343669 
0.0251641 0.0400529 0.0331706 0.0458159 0.056084 0.0622272 0.0639319 0.0633994 0.0622174 
0.0475427 0.0521545 0.0559798 0.0608363 0.0592682 0.0598457 0.0568548 0.0532671 0.050339 
0.0474573 0.0436355 0.0463878 0.0417743 0.0365386 0.0295536 0.0294639 0.022634 0.0163568 
0.0127013 0.0106424 0.00369537 -0.0018773 -0.00325794 -0.00941965 -0.0109545 -0.0191692 -0.0221184 
-0.0228166 -0.01229 0.018747 0.022935 0.0338684 0.0429877 0.00485517 0.00919486 0.0252947 
0.0474997 0.0385816 0.0475232 0.0480061 0.0473263 0.0455483 0.0438628 0.041577 0.0393717 
0.0247086 0.0390749 0.0378776 0.0342085 0.0286353 0.0225986 0.0167159 0.0164297 0.0153904 
0.00786105 0.00185039 -0.00368458 -0.00422837 -0.00855039 -0.00905262 -0.0142628 -0.0172555 -0.0185835 
-0.0264043 -0.0327755 -0.0338516 -0.0435846 -0.0321856 -0.0157235 0.00144231 -0.00131981 0.0102625 
0.018258 0.020068 0.0188901 0.0168257 0.0144303 0.0130204 -0.0314225 -0.0116706 0.0128328 
0.0111647 0.0088627 0.00476208 -3.3451e-05 -0.00437663 -0.00828868 -0.00850731 -0.0101861 -0.0149896 
-0.0200023 -0.0236477 -0.0253267 -0.0483549 -0.0269819 -0.0298144 -0.0327643 -0.0335594 -0.0357017 
-0.0420493 -0.046351 -0.0460531 -0.0402005 -0.0185308 -0.0418993 -0.0583268 -0.0414788 -0.0318435 
-0.0305888 -0.0332116 -0.0666549 -0.0358242 -0.0499348 -0.0361515 -0.0374756 -0.0383049 -0.0393572 
-0.0414453 -0.0454397 -0.0460531 -0.0461964 -0.0488184 -0.0462985 -0.0472997 -0.0486041 -0.0491749 
-0.0491329 -0.0486833 -0.0488367 -0.0502323 -0.0502458 -0.0522103 -0.0521241 -0.0564658 -0.0587675 
-0.0557323 -0.0459308 -0.0203011 -0.0209537 -0.0871756 -0.11441 -0.09458 -0.0808677 -0.105338 
-0.0799601 -0.0835876 -0.0766297 -0.0766248 -0.0777819 -0.0788295 -0.07972 -0.0801659 -0.0802801 
-0.081702 -0.0815358 -0.0861523 -0.076342 -0.0726793 -0.0713912 -0.07118 -0.0706131 -0.0682814 
-0.0658064 -0.0641543 -0.0645958 -0.0645816 -0.0657223 -0.0693604 -0.0705281 -0.0628358 -0.0495868 
-0.0229964 -0.0996655 -0.1287 -0.102874 -0.126877 -0.12908 -0.110108 -0.0945159 -0.0890798 
-0.0886673 -0.0895055 -0.0919703 -0.0933896 -0.0960788 -0.0946987 -0.0961818 -0.100859 -0.0967838 
-0.0951911 -0.0888592 -0.0874131 -0.0864961 -0.0862621 -0.0901344 -0.0816446 -0.0781106 -0.0757726 
-0.075807 -0.0747893 -0.0754591 -0.0787963 -0.0793887 -0.0671532 -0.0513361 -0.0274055 -0.103992 
-0.13284 -0.118046 -0.10327 -0.0980661 -0.097718 -0.0986625 -0.101167 -0.102313 -0.104526 
-0.103744 -0.103209 -0.104549 -0.104266 -0.0977661 -0.0971391 -0.0952275 -0.0942915 -0.0899823 
-0.0860459 -0.0837554 -0.0836702 -0.0814103 -0.0815431 -0.0857178 -0.0859713 -0.0696396 -0.0521839 
-0.0306298 -0.100567 -0.128845 -0.118414 -0.104798 -0.100009 -0.100127 -0.102038 -0.104674 
-0.105564 -0.10762 -0.107761 -0.107234 -0.107057 -0.10699 -0.102407 -0.101831 -0.100544 
-0.0989629 -0.0954783 -0.0915512 -0.0895444 -0.0894481 -0.0860156 -0.0853865 -0.090543 -0.0906228 
-0.0710926 -0.0525005 -0.0328642 
velocity_w 1 705 float
-0.157056 -0.152223 -0.149702 -0.145896 -0.14255 -0.139219 -0.13509 -0.132887 -0.129352 