# vtk DataFile Version 5.1
vtk output
ASCII
DATASET STRUCTURED_GRID
DIMENSIONS 25 25 30
POINTS 18750 float
0 0.005 -0.5 0 0.005 -0.503 0 0.005 -0.506095 
0 0.005 -0.509384 0 0.005 -0.512971 0 0.005 -0.516969 
0 0.005 -0.521506 0 0.005 -0.526726 0 0.005 -0.532795 
0 0.005 -0.539904 0 0.005 -0.548281 0 0.005 -0.55819 
0 0.005 -0.569947 0 0.005 -0.583924 0 0.005 -0.600565 
0 0.005 -0.6204 0 0.005 -0.644057 0 0.005 -0.672287 
0 0.005 -0.705987 0 0.005 -0.746226 0 0.005 -0.794282 
0 0.005 -0.851682 0 0.005 -0.920246 0 0.005 -1.00215 
0 0.005 -1.1 0.00297764 0.005 -0.500366 0.00297775 0.005 -0.503366 
0.00297787 0.005 -0.506461 0.00297799 0.005 -0.509749 0.00297812 0.005 -0.513336 
0.00297827 0.005 -0.517334 0.00297844 0.005 -0.52187 0.00297864 0.005 -0.527089 
0.00297886 0.005 -0.533157 0.00297913 0.005 -0.540264 0.00297944 0.005 -0.548638 
0.00297981 0.005 -0.558544 0.00298025 0.005 -0.570296 0.00298077 0.005 -0.584268 
0.00298139 0.005 -0.600902 0.00298213 0.005 -0.620727 0.00298301 0.005 -0.644372 
0.00298406 0.005 -0.672586 0.00298532 0.005 -0.706267 0.00298682 0.005 -0.746481 
0.00298861 0.005 -0.794507 0.00299075 0.005 -0.851867 0.0029933 0.005 -0.920382 
0.00299635 0.005 -1.00223 0.003 0.005 -1.1 0.00705492 0.005 -0.500866 
0.00705517 0.005 -0.503866 0.00705542 0.005 -0.506961 0.00705569 0.005 -0.51025 
0.00705598 0.005 -0.513836 0.00705631 0.005 -0.517834 0.00705668 0.005 -0.522369 
0.0070571 0.005 -0.527587 0.0070576 0.005 -0.533652 0.00705818 0.005 -0.540757 
0.00705886 0.005 -0.549128 0.00705966 0.005 -0.559029 0.00706062 0.005 -0.570775 
0.00706176 0.005 -0.584739 0.00706312 0.005 -0.601363 0.00706473 0.005 -0.621175 
0.00706666 0.005 -0.644803 0.00706896 0.005 -0.672996 0.0070717 0.005 -0.70665 
0.00707498 0.005 -0.746831 0.00707889 0.005 -0.794814 0.00708356 0.005 -0.852121 
0.00708914 0.005 -0.92057 0.00709581 0.005 -1.00233 0.00710377 0.005 -1.1 
0.0126019 0.005 -0.501547 0.0126023 0.005 -0.504547 0.0126027 0.005 -0.507642 
0.0126031 0.005 -0.510931 0.0126036 0.005 -0.514516 0.0126041 0.005 -0.518513 
0.0126047 0.005 -0.523048 0.0126054 0.005 -0.528264 0.0126062 0.005 -0.534326 
0.0126071 0.005 -0.541428 0.0126082 0.005 -0.549794 0.0126095 0.005 -0.559689 
0.0126111 0.005 -0.571427 0.0126129 0.005 -0.58538 0.0126151 0.005 -0.60199 
0.0126178 0.005 -0.621784 0.0126209 0.005 -0.645389 0.0126246 0.005 -0.673554 
0.012629 0.005 -0.707171 0.0126344 0.005 -0.747306 0.0126407 0.005 -0.795231 
0.0126483 0.005 -0.852466 0.0126573 0.005 -0.920824 0.0126681 0.005 -1.00247 
0.012681 0.005 -1.1 0.0200819 0.005 -0.502466 0.0200825 0.005 -0.505466 
0.020083 0.005 -0.508561 0.0200837 0.005 -0.511849 0.0200843 0.005 -0.515434 
0.0200851 0.005 -0.51943 0.0200859 0.005 -0.523962 0.0200869 0.005 -0.529176 
0.0200881 0.005 -0.535235 0.0200894 0.005 -0.542332 0.0200909 0.005 -0.550692 
0.0200928 0.005 -0.560579 0.020095 0.005 -0.572306 0.0200976 0.005 -0.586244 
0.0201007 0.005 -0.602836 0.0201044 0.005 -0.622606 0.0201089 0.005 -0.64618 
0.0201141 0.005 -0.674306 0.0201204 0.005 -0.707874 0.020128 0.005 -0.747947 
0.0201369 0.005 -0.795794 0.0201477 0.005 -0.852931 0.0201605 0.005 -0.921167 
0.0201758 0.005 -1.00266 0.020194 0.005 -1.1 0.0300497 0.005 -0.50369 
0.0300504 0.005 -0.50669 0.0300512 0.005 -0.509785 0.030052 0.005 -0.513072 
0.0300528 0.005 -0.516656 0.0300538 0.005 -0.520651 0.0300549 0.005 -0.525182 
0.0300562 0.005 -0.530392 0.0300577 0.005 -0.536447 0.0300594 0.005 -0.543538 
0.0300614 0.005 -0.551889 0.0300638 0.005 -0.561764 0.0300667 0.005 -0.573476 
0.0300701 0.005 -0.587396 0.0300741 0.005 -0.603962 0.030079 0.005 -0.623701 
0.0300847 0.005 -0.647235 0.0300915 0.005 -0.675309 0.0300997 0.005 -0.708811 
0.0301095 0.005 -0.748801 0.0301211 0.005 -0.796544 0.030135 0.005 -0.85355 
0.0301516 0.005 -0.921623 0.0301714 0.005 -1.00292 0.0301951 0.005 -1.1 
0.0431245 0.005 -0.505295 0.0431253 0.005 -0.508295 0.0431263 0.005 -0.51139 
0.0431272 0.005 -0.514677 0.0431283 0.005 -0.51826 0.0431295 0.005 -0.522253 
0.0431308 0.005 -0.526781 0.0431323 0.005 -0.531987 0.0431341 0.005 -0.538036 
0.0431362 0.005 -0.545119 0.0431387 0.005 -0.553459 0.0431416 0.005 -0.56332 
0.043145 0.005 -0.575012 0.0431491 0.005 -0.588906 0.043154 0.005 -0.60544 
0.0431598 0.005 -0.625137 0.0431667 0.005 -0.648617 0.0431749 0.005 -0.676623 
0.0431848 0.005 -0.710039 0.0431965 0.005 -0.749921 0.0432106 0.005 -0.797528 
0.0432273 0.005 -0.854363 0.0432473 0.005 -0.922222 0.0432712 0.005 -1.00325 
0.0432996 0.005 -1.1 0.059924 0.005 -0.507358 0.059925 0.005 -0.510358 
0.059926 0.005 -0.513452 0.0599271 0.005 -0.516739 0.0599283 0.005 -0.520321 
0.0599296 0.005 -0.524311 0.0599311 0.005 -0.528835 0.0599328 0.005 -0.534036 
0.0599348 0.005 -0.540078 0.0599371 0.005 -0.54715 0.0599399 0.005 -0.555476 
0.0599432 0.005 -0.565318 0.059947 0.005 -0.576985 0.0599516 0.005 -0.590847 
0.059957 0.005 -0.607339 0.0599635 0.005 -0.626982 0.0599713 0.005 -0.650393 
0.0599805 0.005 -0.678312 0.0599915 0.005 -0.711618 0.0600046 0.005 -0.75136 
0.0600203 0.005 -0.798792 0.060039 0.005 -0.855408 0.0600613 0.005 -0.922992 
0.060088 0.005 -1.00367 0.0601198 0.005 -1.1 0.0809454 0.005 -0.509939 
0.0809464 0.005 -0.512939 0.0809475 0.005 -0.516033 0.0809486 0.005 -0.519319 
0.0809498 0.005 -0.522899 0.0809512 0.005 -0.526887 0.0809527 0.005 -0.531407 
0.0809545 0.005 -0.536601 0.0809565 0.005 -0.542633 0.0809589 0.005 -0.549692 
0.0809617 0.005 -0.558 0.0809651 0.005 -0.567818 0.080969 0.005 -0.579455 
0.0809737 0.005 -0.593276 0.0809793 0.005 -0.609715 0.080986 0.005 -0.62929 
0.0809939 0.005 -0.652616 0.0810034 0.005 -0.680426 0.0810147 0.005 -0.713593 
0.0810281 0.005 -0.753161 0.0810442 0.005 -0.800373 0.0810634 0.005 -0.856714 
0.0810862 0.005 -0.923955 0.0811135 0.005 -1.00421 0.0811461 0.005 -1.1 
0.106395 0.005 -0.513064 0.106396 0.005 -0.516064 0.106397 0.005 -0.519158 
0.106398 0.005 -0.522442 0.106399 0.005 -0.526021 0.106401 0.005 -0.530005 
0.106402 0.005 -0.534519 0.106404 0.005 -0.539705 0.106406 0.005 -0.545726 
0.106408 0.005 -0.552769 0.10641 0.005 -0.561056 0.106414 0.005 -0.570845 
0.106417 0.005 -0.582444 0.106421 0.005 -0.596216 0.106427 0.005 -0.612592 
0.106433 0.005 -0.632086 0.10644 0.005 -0.655307 0.106449 0.005 -0.682984 
0.106459 0.005 -0.715984 0.106471 0.005 -0.755341 0.106486 0.005 -0.802288 
0.106503 0.005 -0.858296 0.106524 0.005 -0.925121 0.106549 0.005 -1.00486 
0.106579 0.005 -1.1 0.136004 0.005 -0.516699 0.136004 0.005 -0.519699 
0.136005 0.005 -0.522793 0.136006 0.005 -0.526076 0.136007 0.005 -0.529652 
0.136008 0.005 -0.533632 0.136009 0.005 -0.53814 0.13601 0.005 -0.543317 
0.136012 0.005 -0.549324 0.136013 0.005 -0.556349 0.136015 0.005 -0.564611 
0.136018 0.005 -0.574367 0.13602 0.005 -0.585922 0.136024 0.005 -0.599637 
0.136028 0.005 -0.615939 0.136033 0.005 -0.635337 0.136038 0.005 -0.658438 
0.136045 0.005 -0.685961 0.136053 0.005 -0.718766 0.136062 0.005 -0.757877 
0.136074 0.005 -0.804515 0.136087 0.005 -0.860136 0.136103 0.005 -0.926477 
0.136123 0.005 -1.00561 0.136146 0.005 -1.1 0.168895 0.005 -0.520738 
0.168895 0.005 -0.523738 0.168895 0.005 -0.526831 0.168896 0.005 -0.530113 
0.168896 0.005 -0.533687 0.168897 0.005 -0.537662 0.168897 0.005 -0.542163 
0.168898 0.005 -0.54733 0.168899 0.005 -0.553322 0.1689 0.005 -0.560326 
0.168901 0.005 -0.56856 0.168902 0.005 -0.578279 0.168904 0.005 -0.589785 
0.168906 0.005 -0.603436 0.168908 0.005 -0.619656 0.16891 0.005 -0.63895 
0.168913 0.005 -0.661915 0.168917 0.005 -0.689268 0.168922 0.005 -0.721856 
0.168927 0.005 -0.760694 0.168933 0.005 -0.806989 0.16894 0.005 -0.86218 
0.168949 0.005 -0.927983 0.16896 0.005 -1.00644 0.168972 0.005 -1.1 
0.203609 0.005 -0.525 0.203609 0.005 -0.528 0.203609 0.005 -0.531093 
0.203609 0.005 -0.534374 0.203609 0.005 -0.537944 0.203609 0.005 -0.541915 
0.203609 0.005 -0.546409 0.203609 0.005 -0.551564 0.203609 0.005 -0.557541 
0.203609 0.005 -0.564524 0.203609 0.005 -0.572728 0.203609 0.005 -0.582408 
0.203609 0.005 -0.593863 0.203609 0.005 -0.607447 0.203609 0.005 -0.62358 
0.203609 0.005 -0.642762 0.203609 0.005 -0.665586 0.203609 0.005 -0.692757 
0.203609 0.005 -0.725118 0.203609 0.005 -0.763668 0.203609 0.005 -0.8096 
0.203609 0.005 -0.864337 0.203609 0.005 -0.929572 0.203609 0.005 -1.00732 
0.203609 0.005 -1.1 0.238323 0.005 -0.529262 0.238322 0.005 -0.532262 
0.238322 0.005 -0.535355 0.238321 0.005 -0.538634 0.238321 0.005 -0.542202 
0.23832 0.005 -0.546169 0.23832 0.005 -0.550655 0.238319 0.005 -0.555799 
0.238318 0.005 -0.56176 0.238317 0.005 -0.568721 0.238316 0.005 -0.576896 
0.238315 0.005 -0.586537 0.238313 0.005 -0.59794 0.238312 0.005 -0.611457 
0.238309 0.005 -0.627504 0.238307 0.005 -0.646574 0.238304 0.005 -0.669256 
0.2383 0.005 -0.696247 0.238296 0.005 -0.728379 0.23829 0.005 -0.766641 
0.238284 0.005 -0.812212 0.238277 0.005 -0.866494 0.238268 0.005 -0.931162 
0.238258 0.005 -1.00821 0.238245 0.005 -1.1 0.271214 0.005 -0.533301 
0.271213 0.005 -0.536301 0.271212 0.005 -0.539393 0.271211 0.005 -0.542671 
0.27121 0.005 -0.546237 0.271209 0.005 -0.550198 0.271208 0.005 -0.554677 
0.271207 0.005 -0.559812 0.271205 0.005 -0.565758 0.271204 0.005 -0.572698 
0.271202 0.005 -0.580845 0.271199 0.005 -0.590449 0.271196 0.005 -0.601803 
0.271193 0.005 -0.615257 0.271189 0.005 -0.631221 0.271184 0.005 -0.650187 
0.271179 0.005 -0.672734 0.271172 0.005 -0.699554 0.271164 0.005 -0.731469 
0.271154 0.005 -0.769458 0.271143 0.005 -0.814685 0.27113 0.005 -0.868538 
0.271114 0.005 -0.932668 0.271095 0.005 -1.00904 0.271072 0.005 -1.1 
0.300822 0.005 -0.536936 0.300821 0.005 -0.539936 0.30082 0.005 -0.543028 
0.300819 0.005 -0.546305 0.300818 0.005 -0.549868 0.300816 0.005 -0.553826 
0.300815 0.005 -0.558299 0.300813 0.005 -0.563423 0.300811 0.005 -0.569356 
0.300809 0.005 -0.576278 0.300806 0.005 -0.5844 0.300803 0.005 -0.59397 
0.3008 0.005 -0.605281 0.300795 0.005 -0.618677 0.30079 0.005 -0.634568 
0.300784 0.005 -0.653438 0.300776 0.005 -0.675864 0.300768 0.005 -0.70253 
[...]
POINT_DATA 18750
FIELD FieldData 5
pressure 1 18750 float
0.180995 0.19739 0.181971 0.179057 0.178578 0.178574 0.178573 0.178573 0.178573 
0.178573 0.178573 0.178573 0.178573 0.178573 0.178573 0.178573 0.178573 0.178573 
0.178573 0.178573 0.178573 0.178573 0.178573 0.178573 0.178573 0.23706 0.23706 
0.192238 0.180791 0.178781 0.178565 0.178572 0.178573 0.178573 0.178573 0.178573 
0.178573 0.178573 0.178573 0.178573 0.178573 0.178573 0.178573 0.178573 0.178573 
0.178573 0.178573 0.178573 0.178573 0.178573 0.234705 0.234705 0.212536 0.188156 
0.1801 0.178715 0.17856 0.178573 0.178574 0.178573 0.178573 0.178573 0.178573 
0.178573 0.178573 0.178573 0.178573 0.178573 0.178573 0.178573 0.178573 0.178573 
0.178573 0.178573 0.178573 0.222601 0.222601 0.218556 0.204483 0.186199 0.179824 
0.178681 0.178557 0.178573 0.178573 0.178572 0.178573 0.178573 0.178573 0.178573 
0.178573 0.178573 0.178573 0.178573 0.178573 0.178573 0.178573 0.178573 0.178573 
0.178573 0.209542 0.209542 0.210115 0.204374 0.196186 0.185035 0.179627 0.178662 
0.178558 0.178576 0.178574 0.178572 0.178573 0.178573 0.178573 0.178573 0.178573 
0.178573 0.178573 0.178573 0.178573 0.178573 0.178573 0.178573 0.178573 0.203616 
0.203616 0.204684 0.200947 0.197407 0.19066 0.183754 0.179553 0.178648 0.178551 
0.178577 0.178575 0.178571 0.178573 0.178573 0.178573 0.178573 0.178573 0.178573 
0.178573 0.178573 0.178573 0.178573 0.178573 0.178573 0.20028 0.20028 0.201559 
0.198653 0.19596 0.192416 0.187873 0.182878 0.179575 0.178653 0.178544 0.178574 
0.178577 0.178572 0.178572 0.178573 0.178573 0.178573 0.178573 0.178573 0.178573 
0.178573 0.178573 0.178573 0.178573 0.197305 0.197305 0.198827 0.196725 0.194584 
0.192082 0.189305 0.186071 0.182452 0.179684 0.178682 0.178535 0.178567 0.178576 
0.178573 0.178572 0.178573 0.178573 0.178573 0.178573 0.178573 0.178573 0.178573 
0.178573 0.178573 0.19461 0.19461 0.196139 0.194682 0.19295 0.191063 0.189026 
0.186973 0.184649 0.182036 0.179783 0.17874 0.178534 0.178564 0.178575 0.178574 
0.178571 0.178573 0.178573 0.178573 0.178573 0.178573 0.178573 0.178573 0.178573 
0.192369 0.192369 0.19379 0.192765 0.191382 0.189865 0.188323 0.186766 0.185257 
0.183572 0.181598 0.179799 0.178788 0.178538 0.178563 0.178573 0.178574 0.178571 
0.178573 0.178573 0.178573 0.178573 0.178573 0.178573 0.178573 0.190509 0.190509 
0.191842 0.191081 0.189978 0.188676 0.187427 0.186188 0.185073 0.183987 0.182754 
0.181265 0.179771 0.178819 0.178546 0.178566 0.178572 0.178574 0.178571 0.178573 
0.178573 0.178573 0.178573 0.178573 0.178573 0.188799 0.188799 0.190048 0.18951 
0.188647 0.187542 0.186485 0.185489 0.184545 0.183804 0.183 0.182151 0.180984 
0.179705 0.178816 0.178555 0.178568 0.178571 0.178574 0.178572 0.178573 0.178573 
0.178573 0.178573 0.178573 0.187391 0.187391 0.18847 0.188153 0.187507 0.186604 
0.185692 0.184796 0.183966 0.183252 0.182721 0.182216 0.18162 0.180706 0.179565 
0.178774 0.178566 0.178566 0.178572 0.178574 0.178573 0.178573 0.178573 0.178573 
0.178573 0.186203 0.186203 0.187056 0.187006 0.18656 0.185872 0.185111 0.184258 
0.183475 0.182776 0.182251 0.181896 0.181642 0.181195 0.180363 0.179338 0.178702 
0.178573 0.178563 0.178573 0.178573 0.178573 0.178573 0.178573 0.178573 0.18497 
0.18497 0.186032 0.18603 0.185789 0.185293 0.184668 0.183914 0.183142 0.182453 
0.181899 0.181533 0.181384 0.181254 0.180818 0.179975 0.179054 0.178638 0.178569 
0.178567 0.178573 0.178573 0.178573 0.178573 0.178573 0.183945 0.183945 0.185314 
0.185214 0.18517 0.184771 0.184316 0.183645 0.182927 0.18223 0.181649 0.181264 
0.181058 0.181082 0.180937 0.180427 0.179509 0.1788 0.1786 0.178562 0.178571 
0.178573 0.178573 0.178573 0.178573 0.183238 0.183238 0.184763 0.184634 0.184676 
0.184383 0.183999 0.183439 0.182753 0.182049 0.181444 0.181001 0.180799 0.180846 
0.180861 0.180628 0.179905 0.179048 0.178648 0.178572 0.178566 0.178573 0.178573 
0.178573 0.178573 0.182654 0.182654 0.184316 0.184155 0.184298 0.184057 0.18376 
0.183248 0.182627 0.181914 0.181264 0.180796 0.18055 0.180619 0.180724 0.180651 
0.180166 0.179309 0.178729 0.178593 0.178561 0.178572 0.178573 0.178573 0.178573 
0.182237 0.182237 0.183964 0.183813 0.183991 0.183819 0.183556 0.183113 0.182527 
0.181831 0.181159 0.180622 0.180361 0.180382 0.180598 0.180599 0.180285 0.179541 
0.178836 0.17861 0.178562 0.17857 0.178573 0.178573 0.178573 0.181947 0.181947 
0.183729 0.18355 0.183777 0.183626 0.183411 0.183 0.182463 0.181788 0.181097 
0.180531 0.180188 0.180204 0.180443 0.180524 0.180335 0.179707 0.178946 0.178628 
0.178567 0.178567 0.178573 0.178573 0.178573 0.181775 0.181775 0.183572 0.183394 
0.183634 0.183509 0.183304 0.182929 0.182416 0.181765 0.18107 0.180462 0.180085 
0.180042 0.180325 0.180471 0.180351 0.179832 0.179039 0.178649 0.178575 0.178564 
0.178573 0.178573 0.178573 0.181623 0.181623 0.183477 0.183289 0.183561 0.183437 
0.183247 0.182884 0.182399 0.181764 0.181066 0.180435 0.179992 0.179916 0.18019 
0.180413 0.180338 0.1799 0.179113 0.17867 0.178583 0.178562 0.178572 0.178573 
0.178573 0.181515 0.181515 0.183398 0.183197 0.183485 0.183371 0.183178 0.182824 
0.182343 0.181722 0.18103 0.180394 0.179944 0.179838 0.180131 0.180407 0.180349 
0.179967 0.179177 0.178692 0.17859 0.178561 0.178572 0.178573 0.178573 0.18148 
0.18148 0.183407 0.183191 0.183509 0.183403 0.183222 0.182873 0.182413 0.181798 
0.181097 0.180424 0.179914 0.179765 0.180022 0.180344 0.180322 0.179993 0.179223 
0.178708 0.178593 0.17856 0.178572 0.178573 0.178573 0.181199 0.181199 0.183344 
0.183095 0.183393 0.183283 0.183085 0.182724 0.18223 0.181616 0.180942 0.180319 
0.179846 0.179699 0.179995 0.180358 0.180324 0.180013 0.179248 0.178721 0.178595 
0.17856 0.178572 0.178573 0.178573 0.178628 0.178687 0.178588 0.178546 0.178573 
0.178577 0.178571 0.178573 0.178573 0.178573 0.178573 0.178573 0.178573 0.178573 
0.178573 0.178573 0.178573 0.178573 0.178573 0.178573 0.178573 0.178573 0.178573 
0.178573 0.178573 0.204412 0.204412 0.181479 0.17899 0.178483 0.178576 0.178587 
0.178567 0.178574 0.178573 0.178573 0.178573 0.178573 0.178573 0.178573 0.178573 
0.178573 0.178573 0.178573 0.178573 0.178573 0.178573 0.178573 0.178573 0.178573 
0.223176 0.223176 0.195137 0.181298 0.178976 0.178533 0.178566 0.178585 0.17857 
0.178574 0.178573 0.178573 0.178573 0.178573 0.178573 0.178573 0.178573 0.178573 
0.178573 0.178573 0.178573 0.178573 0.178573 0.178573 0.178573 0.214806 0.214806 
0.208593 0.193342 0.181347 0.178972 0.178564 0.178563 0.17858 0.178571 0.178574 
0.178573 0.178573 0.178573 0.178573 0.178573 0.178573 0.178573 0.178573 0.178573 
0.178573 0.178573 0.178573 0.178573 0.178573 0.200673 0.200673 0.202501 0.196198 
0.188778 0.181461 0.17891 0.178569 0.178568 0.17858 0.178571 0.178573 0.178573 
0.178573 0.178573 0.178573 0.178573 0.178573 0.178573 0.178573 0.178573 0.178573 
0.178573 0.178573 0.178573 0.194842 0.194842 0.19769 0.194277 0.191128 0.185679 
0.181254 0.1789 0.178557 0.178564 0.178579 0.178571 0.178572 0.178573 0.178573 
0.178573 0.178573 0.178573 0.178573 0.178573 0.178573 0.178573 0.178573 0.178573 
0.178573 0.192309 0.192309 0.195058 0.192834 0.190524 0.187878 0.184443 0.180977 
0.178957 0.178554 0.178555 0.178578 0.178573 0.178572 0.178572 0.178573 0.178573 
0.178573 0.178573 0.178573 0.178573 0.178573 0.178573 0.178573 0.178573 0.190099 
0.190099 0.192699 0.191478 0.189811 0.187973 0.186012 0.183631 0.180995 0.179104 
0.178569 0.178539 0.178574 0.178574 0.178573 0.178572 0.178573 0.178573 0.178573 
0.178573 0.178573 0.178573 0.178573 0.178573 0.178573 0.188045 0.188045 0.190405 
0.189901 0.188726 0.187404 0.185951 0.184582 0.183026 0.181039 0.179303 0.178621 
0.178532 0.178571 0.178574 0.178574 0.178571 0.178573 0.178573 0.178573 0.178573 
0.178573 0.178573 0.178573 0.178573 0.186324 0.186324 0.18843 0.188412 0.187615 
0.186614 0.185515 0.184516 0.183534 0.182467 0.18092 0.179432 0.178669 0.178531 
0.178569 0.178573 0.178574 0.178571 0.178573 0.178573 0.178573 0.178573 0.178573 
0.178573 0.178573 0.184954 0.184954 0.186934 0.187144 0.186646 0.185826 0.184955 
0.184105 0.183397 0.182772 0.181979 0.180786 0.179484 0.17871 0.178537 0.17857 
0.178572 0.178574 0.178571 0.178573 0.178573 0.178573 0.178573 0.178573 0.178573 
0.183802 0.183802 0.185656 0.186016 0.185739 0.185065 0.184368 0.183637 0.182983 
0.182553 0.182175 0.181596 0.180631 0.179464 0.178724 0.178547 0.17857 0.178571 
0.178574 0.178572 0.178573 0.178573 0.178573 0.178573 0.178573 0.182974 0.182974 
0.184639 0.185117 0.184991 0.184448 0.183849 0.18322 0.182582 0.18209 0.181868 
0.181641 0.181208 0.180438 0.179361 0.178707 0.178561 0.178567 0.178572 0.178574 
0.178573 0.178573 0.178573 0.178573 0.178573 0.182422 0.182422 0.183728 0.184465 
0.184417 0.183992 0.183483 0.182882 0.182297 0.181741 0.181418 0.181342 0.18121 
0.180861 0.180128 0.17918 0.178664 0.17857 0.178564 0.178573 0.178573 0.178573 
0.178573 0.178573 0.178573 0.1816 0.1816 0.18331 0.183948 0.184001 0.183679 
0.183234 0.182698 0.182124 0.181565 0.181154 0.18098 0.180978 0.180871 0.180525 
0.179767 0.178956 0.178622 0.178568 0.178567 0.178573 0.178573 0.178573 0.178573 
0.178573 0.18091 0.18091 0.183063 0.183495 0.183679 0.183402 0.183076 0.182575 
0.182037 0.181475 0.181 0.180752 0.180694 0.180732 0.180605 0.180177 0.179361 
0.178755 0.178594 0.178562 0.178572 0.178573 0.178573 0.178573 0.178573 0.180524 
0.180524 0.182858 0.183192 0.183417 0.183212 0.182929 0.182504 0.181966 0.181404 
0.1809 0.180567 0.180475 0.180551 0.180543 0.180356 0.179723 0.178972 0.178635 
0.17857 0.178567 0.178573 0.178573 0.178573 0.178573 0.180193 0.180193 0.182693 
0.182941 0.183217 0.183043 0.182819 0.182422 0.181925 0.181343 0.180808 0.180441 
0.180275 0.180376 0.180453 0.180378 0.179959 0.179208 0.178705 0.17859 0.178561 
0.178572 0.178573 0.178573 0.178573 0.179958 0.179958 0.182562 0.182766 0.183053 
0.182916 0.182716 0.182365 0.18189 0.181318 0.180762 0.180334 0.180142 0.180189 
0.18037 0.180339 0.180068 0.179422 0.178801 0.178605 0.178561 0.17857 0.178573 
0.178573 0.178573 0.179814 0.179814 0.182464 0.182625 0.182932 0.182811 0.182638 
0.182312 0.181875 0.181312 0.180746 0.180292 0.180024 0.180053 0.180256 0.180283 
0.180121 0.179576 0.178901 0.178621 0.178566 0.178567 0.178573 0.178573 0.178573 
0.179741 0.179741 0.182405 0.182537 0.182855 0.182746 0.182587 0.182281 0.181863 
0.181323 0.180747 0.180263 0.17996 0.179929 0.180165 0.180248 0.180144 0.179691 
0.178988 0.17864 0.178574 0.178565 0.178573 0.178573 0.178573 0.17969 0.17969 
0.18237 0.18248 0.182809 0.182715 0.182559 0.182267 0.18187 0.18134 0.180767 
0.180258 0.179903 0.179832 0.180057 0.180209 0.180138 0.179753 0.179055 0.178659 
0.178582 0.178563 0.178572 0.178573 0.178573 0.179642 0.179642 0.182337 0.182411 
0.18276 0.182664 0.182517 0.182226 0.181834 0.18132 0.180748 0.180243 0.179875 
0.179778 0.180015 0.180219 0.180154 0.179815 0.179116 0.178679 0.178588 0.178561 
0.178572 0.178573 0.178573 0.179676 0.179676 0.182362 0.182431 0.182789 0.182721 
0.182575 0.182296 0.181918 0.181408 0.18083 0.180284 0.179863 0.17972 0.179926 
0.180172 0.180132 0.179839 0.179158 0.178694 0.178591 0.178561 0.178572 0.178573 
0.178573 0.179595 0.179595 0.182308 0.182288 0.182636 0.182549 0.182401 0.182103 
0.181703 0.181202 0.180656 0.180178 0.179807 0.179671 0.179907 0.180191 0.180129 
0.179851 0.179179 0.178706 0.178593 0.17856 0.178572 0.178573 0.178573 0.178651 
0.178692 0.178588 0.17853 0.178573 0.178579 0.178571 0.178573 0.178573 0.178573 
0.178573 0.178573 0.178573 0.178573 0.178573 0.178573 0.178573 0.178573 0.178573 
0.178573 0.178573 0.178573 0.178573 0.178573 0.178573 0.205654 0.205654 0.181446 
0.178986 0.178533 0.178565 0.178582 0.17857 0.178573 0.178573 0.178573 0.178573 
0.178573 0.178573 0.178573 0.178573 0.178573 0.178573 0.178573 0.178573 0.178573 
0.178573 0.178573 0.178573 0.178573 0.2239 0.2239 0.19552 0.181282 0.179006 
0.178558 0.17856 0.17858 0.178572 0.178573 0.178573 0.178573 0.178573 0.178573 
0.178573 0.178573 0.178573 0.178573 0.178573 0.178573 0.178573 0.178573 0.178573 
0.178573 0.178573 0.21353 0.21353 0.208344 0.193016 0.181297 0.179008 0.178574 
0.178559 0.178577 0.178572 0.178573 0.178573 0.178573 0.178573 0.178573 0.178573 
0.178573 0.178573 0.178573 0.178573 0.178573 0.178573 0.178573 0.178573 0.178573 
0.199763 0.199763 0.201792 0.195801 0.188473 0.181374 0.178968 0.178572 0.178563 
0.178579 0.178572 0.178572 0.178573 0.178573 0.178573 0.178573 0.178573 0.178573 
0.178573 0.178573 0.178573 0.178573 0.178573 0.178573 0.178573 0.194297 0.194297 
0.197172 0.193764 0.190675 0.185452 0.181197 0.178987 0.178562 0.178559 0.178579 
0.178573 0.178572 0.178573 0.178573 0.178573 0.178573 0.178573 0.178573 0.178573 
0.178573 0.178573 0.178573 0.178573 0.178573 0.191889 0.191889 0.194624 0.192433 
0.190106 0.18753 0.184245 0.180976 0.179044 0.17856 0.178551 0.178577 0.178574 
0.178572 0.178572 0.178573 0.178573 0.178573 0.178573 0.178573 0.178573 0.178573 
0.178573 0.178573 0.178573 0.189756 0.189756 0.192291 0.191129 0.189462 0.187652 
0.185751 0.183479 0.181001 0.179166 0.178578 0.178537 0.178573 0.178575 0.178573 
0.178572 0.178573 0.178573 0.178573 0.178573 0.178573 0.178573 0.178573 0.178573 
0.178573 0.187766 0.187766 0.190031 0.189582 0.188429 0.187129 0.185718 0.18441 
0.182919 0.181039 0.179338 0.178629 0.178531 0.178569 0.178575 0.178574 0.178571 
0.178573 0.178573 0.178573 0.178573 0.178573 0.178573 0.178573 0.178573 0.186099 
0.186099 0.188086 0.188122 0.187356 0.186377 0.185314 0.184367 0.183431 0.1824 
0.180908 0.179441 0.178673 0.17853 0.178568 0.178573 0.178574 0.178571 0.178573 
0.178573 0.178573 0.178573 0.178573 0.178573 0.178573 0.184773 0.184773 0.186618 
0.186882 0.186418 0.185624 0.184778 0.183975 0.183325 0.182709 0.181929 0.180758 
0.179472 0.178709 0.178536 0.178569 0.178572 0.178574 0.178571 0.178573 0.178573 
0.178573 0.178573 0.178573 0.178573 0.18366 0.18366 0.185367 0.185781 0.18554 
0.184891 0.184218 0.183517 0.182925 0.182506 0.182113 0.181537 0.180588 0.17944 
0.178721 0.178546 0.17857 0.178572 0.178574 0.178572 0.178573 0.178573 0.178573 
0.178573 0.178573 0.182868 0.182868 0.184379 0.184908 0.184819 0.184299 0.183717 
0.183112 0.182518 0.182079 0.181821 0.181561 0.181137 0.180382 0.179335 0.178703 
0.17856 0.178567 0.178572 0.178574 0.178573 0.178573 0.178573 0.178573 0.178573 
0.182353 0.182353 0.183485 0.184287 0.184266 0.183862 0.183367 0.182777 0.182229 
0.181726 0.181405 0.181273 0.181115 0.180785 0.180072 0.17916 0.178661 0.17857 
0.178564 0.178573 0.178573 0.178573 0.178573 0.178573 0.178573 0.181537 0.181537 
0.183109 0.183791 0.183874 0.183561 0.183124 0.182597 0.182041 0.181544 0.181145 
0.18094 0.180886 0.180779 0.180454 0.179726 0.178943 0.17862 0.178568 0.178567 
0.178573 0.178573 0.178573 0.178573 0.178573 0.180856 0.180856 0.182891 0.183364 
0.183558 0.183293 0.182968 0.182472 0.181953 0.181429 0.181002 0.180716 0.180621 
0.180635 0.180526 0.180121 0.179336 0.178748 0.178593 0.178561 0.178572 0.178573 
0.178573 0.178573 0.178573 0.180471 0.180471 0.182716 0.183065 0.183306 0.1831 
0.182822 0.182401 0.181877 0.181356 0.180885 0.180551 0.180405 0.180459 0.180459 
0.180289 0.17969 0.178959 0.178631 0.17857 0.178567 0.178573 0.178573 0.178573 
0.178573 0.180162 0.180162 0.182546 0.182824 0.183099 0.182935 0.18271 0.182322 
0.181842 0.181289 0.1808 0.180413 0.180225 0.180283 0.180359 0.180313 0.179913 
0.179189 0.178699 0.178588 0.178561 0.178572 0.178573 0.178573 0.178573 0.179942 
0.179942 0.182412 0.182641 0.182942 0.182803 0.182614 0.182268 0.181811 0.18127 
0.180742 0.180324 0.180082 0.18011 0.180272 0.180264 0.180019 0.179396 0.178793 
0.178604 0.178561 0.17857 0.178573 0.178573 0.178573 0.179816 0.179816 0.182297 
0.182511 0.182815 0.182708 0.182535 0.182223 0.1818 0.181265 0.180734 0.180266 
0.179982 0.179967 0.180162 0.180205 0.180061 0.179547 0.17889 0.178619 0.178566 
0.178567 0.178573 0.178573 0.178573 0.17974 0.17974 0.182245 0.182417 0.18275 
0.182639 0.182493 0.182193 0.181794 0.181281 0.180727 0.180253 0.179902 0.179858 
0.180067 0.180161 0.180085 0.179655 0.178974 0.178637 0.178573 0.178565 0.178573 
0.178573 0.178573 0.179685 0.179685 0.182212 0.182375 0.182698 0.182618 0.182461 
0.182186 0.181801 0.181296 0.180753 0.180231 0.179863 0.179749 0.179967 0.180119 
0.180072 0.179718 0.179039 0.178655 0.178581 0.178563 0.178572 0.178573 0.178573 
0.179624 0.179624 0.182201 0.182301 0.182663 0.182564 0.182431 0.182144 0.181772 
0.181282 0.180728 0.180233 0.179817 0.179711 0.179918 0.180127 0.180093 0.179774 
0.179099 0.178675 0.178587 0.178561 0.178572 0.178573 0.178573 0.179659 0.179659 
0.182221 0.182335 0.182687 0.182632 0.182484 0.182221 0.181854 0.181366 0.180813 
0.180255 0.179822 0.179636 0.179836 0.180075 0.180062 0.179799 0.179138 0.178689 
0.17859 0.178561 0.178572 0.178573 0.178573 0.179492 0.179492 0.182209 0.182182 
0.182536 0.182447 0.182311 0.182021 0.181641 0.181162 0.180637 0.180166 0.179746 
0.179598 0.179801 0.180088 0.180061 0.179804 0.17916 0.1787 0.178592 0.17856 
0.178572 0.178573 0.178573 0.178673 0.178703 0.17859 0.178523 0.178575 0.178578 
0.17857 0.178573 0.178573 0.178573 0.178573 0.178573 0.178573 0.178573 0.178573 
0.178573 0.178573 0.178573 0.178573 0.178573 0.178573 0.178573 0.178573 0.178573 
0.178573 0.206747 0.206747 0.181478 0.178958 0.178511 0.17857 0.178583 0.178569 
0.178573 0.178573 0.178573 0.178573 0.178573 0.178573 0.178573 0.178573 0.178573 
0.178573 0.178573 0.178573 0.178573 0.178573 0.178573 0.178573 0.178573 0.224443 
0.224443 0.195902 0.181294 0.17897 0.178544 0.178563 0.178582 0.178572 0.178573 
0.178573 0.178573 0.178573 0.178573 0.178573 0.178573 0.178573 0.178573 0.178573 
0.178573 0.178573 0.178573 0.178573 0.178573 0.178573 0.212131 0.212131 0.207938 
0.19281 0.181264 0.178972 0.178565 0.178561 0.178578 0.178572 0.178573 0.178573 
0.178573 0.178573 0.178573 0.178573 0.178573 0.178573 0.178573 0.178573 0.178573 
0.178573 0.178573 0.178573 0.178573 0.198704 0.198704 0.201041 0.195354 0.188223 
0.181292 0.178937 0.178567 0.178565 0.178579 0.178572 0.178572 0.178573 0.178573 
0.178573 0.178573 0.178573 0.178573 0.178573 0.178573 0.178573 0.178573 0.178573 
0.178573 0.178573 0.193687 0.193687 0.196577 0.193236 0.190241 0.185239 0.181104 
0.17895 0.178558 0.178561 0.178579 0.178572 0.178572 0.178573 0.178573 0.178573 
0.178573 0.178573 0.178573 0.178573 0.178573 0.178573 0.178573 0.178573 0.178573 
0.191403 0.191403 0.194146 0.191989 0.18968 0.187183 0.184035 0.180875 0.179 
0.178556 0.178553 0.178577 0.178574 0.178572 0.178572 0.178573 0.178573 0.178573 
0.178573 0.178573 0.178573 0.178573 0.178573 0.178573 0.178573 0.189367 0.189367 
0.19186 0.190733 0.189078 0.187303 0.185462 0.183275 0.180887 0.17912 0.178572 
0.178539 0.178573 0.178574 0.178573 0.178572 0.178573 0.178573 0.178573 0.178573 
0.178573 0.178573 0.178573 0.178573 0.178573 0.187469 0.187469 0.189648 0.189218 
0.188086 0.186807 0.185435 0.184164 0.182725 0.180915 0.179287 0.178623 0.178532 
0.17857 0.178574 0.178574 0.178571 0.178573 0.178573 0.178573 0.178573 0.178573 
0.178573 0.178573 0.178573 0.185879 0.185879 0.18774 0.187789 0.187044 0.186086 
0.185043 0.184125 0.183217 0.182221 0.180788 0.179389 0.178666 0.178531 0.178569 
0.178573 0.178574 0.178571 0.178573 0.178573 0.178573 0.178573 0.178573 0.178573 
0.178573 0.184628 0.184628 0.186298 0.186574 0.186137 0.185354 0.184531 0.183742 
0.183112 0.182521 0.181768 0.180646 0.179424 0.178701 0.178536 0.178569 0.178572 
0.178574 0.178571 0.178573 0.178573 0.178573 0.178573 0.178573 0.178573 0.183572 
0.183572 0.185079 0.1855 0.185284 0.184651 0.183986 0.183308 0.18272 0.182321 
0.181952 0.181397 0.180489 0.179396 0.178713 0.178546 0.17857 0.178572 0.178574 
0.178572 0.178573 0.178573 0.178573 0.178573 0.178573 0.182838 0.182838 0.184109 
0.184656 0.184585 0.184078 0.183513 0.182912 0.182341 0.181896 0.181666 0.181432 
0.181022 0.1803 0.179298 0.178696 0.17856 0.178567 0.178572 0.178574 0.178573 
0.178573 0.178573 0.178573 0.178573 0.182345 0.182345 0.183239 0.184051 0.184059 