# vtk DataFile Version 5.1
vtk output
ASCII
DATASET STRUCTURED_GRID
DIMENSIONS 24 15 20
POINTS 7200 float
5.62481 0.666943 0.415865 5.62482 0.705828 0.415865 5.62482 0.743636 0.415865 
5.62483 0.779902 0.415865 5.62483 0.814241 0.415865 5.62484 0.84636 0.415865 
5.62484 0.876062 0.415865 5.62484 0.903241 0.415865 5.62485 0.927875 0.415865 
5.62485 0.950009 0.415865 5.62485 0.969744 0.415865 5.62485 0.987221 0.415865 
5.62485 1.0026 0.415865 5.62486 1.01607 0.415865 5.62486 1.02781 0.415865 
5.62486 1.03799 0.415865 5.62486 1.04681 0.415865 5.62486 1.05441 0.415865 
5.62486 1.06095 0.415865 5.62486 1.06656 0.415865 5.62487 1.07137 0.415865 
5.62487 1.07548 0.415865 5.62487 1.079 0.415865 5.62487 1.082 0.415865 
5.66519 0.664271 0.415865 5.66518 0.703484 0.415865 5.66518 0.741606 0.415865 
5.66517 0.778167 0.415865 5.66517 0.812778 0.415865 5.66516 0.845142 0.415865 
5.66516 0.875061 0.415865 5.66516 0.90243 0.415865 5.66515 0.927227 0.415865 
5.66515 0.949498 0.415865 5.66515 0.969348 0.415865 5.66515 0.986918 0.415865 
5.66514 1.00238 0.415865 5.66514 1.0159 0.415865 5.66514 1.02769 0.415865 
5.66514 1.03791 0.415865 5.66514 1.04675 0.415865 5.66514 1.05437 0.415865 
5.66514 1.06093 0.415865 5.66514 1.06655 0.415865 5.66513 1.07136 0.415865 
5.66513 1.07548 0.415865 5.66513 1.079 0.415865 5.66513 1.082 0.415865 
5.70556 0.661599 0.415865 5.70555 0.70114 0.415865 5.70553 0.739576 0.415865 
5.70552 0.776432 0.415865 5.7055 0.811315 0.415865 5.70549 0.843924 0.415865 
5.70548 0.874061 0.415865 5.70547 0.90162 0.415865 5.70546 0.926579 0.415865 
5.70545 0.948988 0.415865 5.70544 0.968952 0.415865 5.70544 0.986615 0.415865 
5.70543 1.00215 0.415865 5.70543 1.01574 0.415865 5.70542 1.02757 0.415865 
5.70542 1.03783 0.415865 5.70542 1.04669 0.415865 5.70541 1.05434 0.415865 
5.70541 1.0609 0.415865 5.70541 1.06654 0.415865 5.70541 1.07136 0.415865 
5.70541 1.07548 0.415865 5.7054 1.079 0.415865 5.7054 1.082 0.415865 
5.74593 0.658928 0.415865 5.74591 0.698796 0.415865 5.74588 0.737547 0.415865 
5.74586 0.774698 0.415865 5.74584 0.809852 0.415865 5.74582 0.842707 0.415865 
5.7458 0.873061 0.415865 5.74578 0.900809 0.415865 5.74577 0.925931 0.415865 
5.74575 0.948477 0.415865 5.74574 0.968556 0.415865 5.74573 0.986312 0.415865 
5.74572 1.00192 0.415865 5.74571 1.01557 0.415865 5.7457 1.02745 0.415865 
5.7457 1.03774 0.415865 5.74569 1.04664 0.415865 5.74569 1.0543 0.415865 
5.74568 1.06088 0.415865 5.74568 1.06652 0.415865 5.74568 1.07135 0.415865 
5.74567 1.07548 0.415865 5.74567 1.079 0.415865 5.74567 1.082 0.415865 
5.7863 0.656257 0.415865 5.78626 0.696453 0.415865 5.78623 0.735517 0.415865 
5.7862 0.772963 0.415865 5.78617 0.808389 0.415865 5.78614 0.841489 0.415865 
5.78612 0.872061 0.415865 5.78609 0.899999 0.415865 5.78607 0.925284 0.415865 
5.78605 0.947967 0.415865 5.78603 0.968159 0.415865 5.78602 0.98601 0.415865 
5.786 1.00169 0.415865 5.78599 1.0154 0.415865 5.78598 1.02733 0.415865 
5.78597 1.03766 0.415865 5.78597 1.04658 0.415865 5.78596 1.05426 0.415865 
5.78595 1.06086 0.415865 5.78595 1.06651 0.415865 5.78594 1.07135 0.415865 
5.78594 1.07548 0.415865 5.78594 1.079 0.415865 5.78593 1.082 0.415865 
5.82666 0.653586 0.415865 5.82662 0.69411 0.415865 5.82658 0.733489 0.415865 
5.82653 0.77123 0.415865 5.82649 0.806927 0.415865 5.82646 0.840272 0.415865 
5.82643 0.871062 0.415865 5.8264 0.89919 0.415865 5.82637 0.924636 0.415865 
5.82634 0.947457 0.415865 5.82632 0.967763 0.415865 5.8263 0.985707 0.415865 
5.82628 1.00147 0.415865 5.82627 1.01523 0.415865 5.82626 1.02721 0.415865 
5.82625 1.03758 0.415865 5.82624 1.04653 0.415865 5.82623 1.05423 0.415865 
5.82622 1.06084 0.415865 5.82621 1.0665 0.415865 5.82621 1.07134 0.415865 
5.8262 1.07548 0.415865 5.8262 1.079 0.415865 5.8262 1.082 0.415865 
5.86701 0.650917 0.415865 5.86696 0.691768 0.415865 5.86691 0.73146 0.415865 
5.86686 0.769496 0.415865 5.86682 0.805465 0.415865 5.86677 0.839056 0.415865 
5.86673 0.870063 0.415865 5.8667 0.89838 0.415865 5.86666 0.923989 0.415865 
5.86663 0.946947 0.415865 5.86661 0.967368 0.415865 5.86658 0.985405 0.415865 
5.86656 1.00124 0.415865 5.86654 1.01507 0.415865 5.86653 1.02709 0.415865 
5.86652 1.03749 0.415865 5.8665 1.04647 0.415865 5.86649 1.05419 0.415865 
5.86648 1.06082 0.415865 5.86648 1.06649 0.415865 5.86647 1.07134 0.415865 
5.86647 1.07547 0.415865 5.86646 1.079 0.415865 5.86646 1.082 0.415865 
5.90736 0.648248 0.415865 5.9073 0.689427 0.415865 5.90724 0.729433 0.415865 
5.90719 0.767764 0.415865 5.90713 0.804003 0.415865 5.90708 0.837839 0.415865 
5.90703 0.869064 0.415865 5.90699 0.89757 0.415865 5.90695 0.923342 0.415865 
5.90692 0.946438 0.415865 5.90689 0.966972 0.415865 5.90686 0.985103 0.415865 
5.90684 1.00101 0.415865 5.90682 1.0149 0.415865 5.9068 1.02697 0.415865 
5.90678 1.03741 0.415865 5.90677 1.04641 0.415865 5.90675 1.05416 0.415865 
5.90674 1.0608 0.415865 5.90674 1.06648 0.415865 5.90673 1.07133 0.415865 
5.90672 1.07547 0.415865 5.90672 1.079 0.415865 5.90671 1.082 0.415865 
5.9477 0.64558 0.415865 5.94763 0.687086 0.415865 5.94756 0.727406 0.415865 
5.9475 0.766032 0.415865 5.94744 0.802543 0.415865 5.94738 0.836624 0.415865 
5.94733 0.868066 0.415865 5.94728 0.896762 0.415865 5.94724 0.922696 0.415865 
5.9472 0.945928 0.415865 5.94716 0.966577 0.415865 5.94713 0.984801 0.415865 
5.9471 1.00079 0.415865 5.94708 1.01473 0.415865 5.94706 1.02685 0.415865 
5.94704 1.03733 0.415865 5.94702 1.04636 0.415865 5.94701 1.05412 0.415865 
5.947 1.06077 0.415865 5.94699 1.06647 0.415865 5.94698 1.07133 0.415865 
5.94697 1.07547 0.415865 5.94697 1.079 0.415865 5.94696 1.082 0.415865 
5.98803 0.642914 0.415865 5.98795 0.684747 0.415865 5.98787 0.725381 0.415865 
5.9878 0.764301 0.415865 5.98773 0.801083 0.415865 5.98767 0.835409 0.415865 
5.98761 0.867068 0.415865 5.98756 0.895953 0.415865 5.98751 0.92205 0.415865 
5.98747 0.945419 0.415865 5.98743 0.966181 0.415865 5.98739 0.984499 0.415865 
5.98736 1.00056 0.415865 5.98734 1.01457 0.415865 5.98731 1.02673 0.415865 
5.98729 1.03724 0.415865 5.98728 1.0463 0.415865 5.98726 1.05408 0.415865 
5.98725 1.06075 0.415865 5.98724 1.06646 0.415865 5.98723 1.07132 0.415865 
5.98722 1.07547 0.415865 5.98722 1.079 0.415865 5.98721 1.082 0.415865 
6.02834 0.640248 0.415865 6.02826 0.682409 0.415865 6.02817 0.723356 0.415865 
6.0281 0.76257 0.415865 6.02802 0.799624 0.415865 6.02795 0.834194 0.415865 
6.02789 0.866071 0.415865 6.02783 0.895145 0.415865 6.02778 0.921404 0.415865 
6.02773 0.944911 0.415865 6.02769 0.965787 0.415865 6.02765 0.984197 0.415865 
6.02762 1.00033 0.415865 6.02759 1.0144 0.415865 6.02756 1.02661 0.415865 
6.02754 1.03716 0.415865 6.02752 1.04625 0.415865 6.02751 1.05405 0.415865 
6.02749 1.06073 0.415865 6.02748 1.06644 0.415865 6.02747 1.07132 0.415865 
6.02746 1.07547 0.415865 6.02746 1.079 0.415865 6.02745 1.082 0.415865 
6.06864 0.637585 0.415865 6.06855 0.680072 0.415865 6.06846 0.721333 0.415865 
6.06838 0.760841 0.415865 6.0683 0.798166 0.415865 6.06822 0.832981 0.415865 
6.06815 0.865074 0.415865 6.06809 0.894338 0.415865 6.06803 0.920759 0.415865 
6.06798 0.944402 0.415865 6.06794 0.965393 0.415865 6.0679 0.983896 0.415865 
6.06786 1.00011 0.415865 6.06783 1.01424 0.415865 6.06781 1.02649 0.415865 
6.06778 1.03708 0.415865 6.06776 1.04619 0.415865 6.06775 1.05401 0.415865 
6.06773 1.06071 0.415865 6.06772 1.06643 0.415865 6.06771 1.07131 0.415865 
6.0677 1.07547 0.415865 6.06769 1.079 0.415865 6.06768 1.082 0.415865 
6.10892 0.634923 0.415865 6.10883 0.677737 0.415865 6.10873 0.719311 0.415865 
6.10864 0.759113 0.415865 6.10856 0.796709 0.415865 6.10848 0.831768 0.415865 
6.10841 0.864079 0.415865 6.10834 0.893532 0.415865 6.10828 0.920115 0.415865 
6.10823 0.943895 0.415865 6.10818 0.964998 0.415865 6.10814 0.983596 0.415865 
6.1081 0.999883 0.415865 6.10807 1.01407 0.415865 6.10804 1.02637 0.415865 
6.10802 1.03699 0.415865 6.10799 1.04613 0.415865 6.10797 1.05398 0.415865 
6.10796 1.06069 0.415865 6.10795 1.06642 0.415865 6.10794 1.07131 0.415865 
6.10792 1.07546 0.415865 6.10792 1.079 0.415865 6.10791 1.082 0.415865 
6.14919 0.632263 0.415865 6.14909 0.675403 0.415865 6.14899 0.71729 0.415865 
6.1489 0.757387 0.415865 6.14881 0.795252 0.415865 6.14873 0.830557 0.415865 
6.14865 0.863084 0.415865 6.14858 0.892726 0.415865 6.14852 0.919471 0.415865 
6.14846 0.943388 0.415865 6.14841 0.964605 0.415865 6.14836 0.983295 0.415865 
6.14833 0.999658 0.415865 6.14829 1.01391 0.415865 6.14826 1.02625 0.415865 
6.14824 1.03691 0.415865 6.14822 1.04608 0.415865 6.1482 1.05394 0.415865 
6.14818 1.06067 0.415865 6.14817 1.06641 0.415865 6.14815 1.0713 0.415865 
6.14815 1.07546 0.415865 6.14814 1.079 0.415865 6.14813 1.082 0.415865 
6.18944 0.629605 0.415865 6.18934 0.673071 0.415865 6.18923 0.715271 0.415865 
6.18914 0.755661 0.415865 6.18904 0.793797 0.415865 6.18896 0.829346 0.415865 
6.18888 0.86209 0.415865 6.18881 0.89192 0.415865 6.18874 0.918828 0.415865 
6.18868 0.942881 0.415865 6.18863 0.964212 0.415865 6.18858 0.982995 0.415865 
6.18854 0.999433 0.415865 6.18851 1.01374 0.415865 6.18848 1.02613 0.415865 
6.18845 1.03683 0.415865 6.18843 1.04602 0.415865 6.18841 1.05391 0.415865 
6.18839 1.06065 0.415865 6.18838 1.0664 0.415865 6.18837 1.0713 0.415865 
6.18836 1.07546 0.415865 6.18835 1.079 0.415865 6.18834 1.082 0.415865 
5.62481 0.666943 0.401362 5.62482 0.705828 0.401362 5.62482 0.743636 0.401362 
5.62483 0.779902 0.401362 5.62483 0.814241 0.401362 5.62484 0.84636 0.401362 
5.62484 0.876062 0.401362 5.62484 0.903241 0.401362 5.62485 0.927875 0.401362 
5.62485 0.950009 0.401362 5.62485 0.969744 0.401362 5.62485 0.987221 0.401362 
5.62485 1.0026 0.401362 5.62486 1.01607 0.401362 5.62486 1.02781 0.401362 
5.62486 1.03799 0.401362 5.62486 1.04681 0.401362 5.62486 1.05441 0.401362 
5.62486 1.06095 0.401362 5.62486 1.06656 0.401362 5.62487 1.07137 0.401362 
5.62487 1.07548 0.401362 5.62487 1.079 0.401362 5.62487 1.082 0.401362 
5.66519 0.664271 0.401362 5.66518 0.703484 0.401362 5.66518 0.741606 0.401362 
[...]
POINT_DATA 7200
FIELD FieldData 5
pressure 1 7200 float
0.132487 0.131654 0.130769 0.131394 0.133156 0.135545 0.138647 0.141331 0.144064 
0.146166 0.148242 0.149519 0.151124 0.152103 0.153394 0.154063 0.155067 0.155447 
0.156318 0.156465 0.157102 0.157092 0.157329 0.157278 0.136771 0.142708 0.140513 
0.138435 0.138252 0.139898 0.143516 0.147244 0.151585 0.154114 0.156418 0.157384 
0.158528 0.159077 0.159499 0.159414 0.158962 0.158326 0.157476 0.157039 0.156245 
0.156108 0.155647 0.155535 0.139872 0.142038 0.142189 0.140258 0.139859 0.141126 
0.143766 0.146952 0.149673 0.151939 0.153377 0.154172 0.154637 0.154899 0.155032 
0.155072 0.155157 0.155019 0.155024 0.15483 0.155014 0.15492 0.155055 0.155206 
0.142939 0.141425 0.140771 0.140355 0.140169 0.140926 0.142461 0.144755 0.146538 
0.148226 0.149259 0.15035 0.150944 0.151785 0.152102 0.152801 0.15295 0.153501 
0.153469 0.154025 0.153877 0.154345 0.154365 0.15438 0.144896 0.142075 0.140338 
0.140464 0.140632 0.14073 0.141196 0.142267 0.143789 0.145091 0.14666 0.148025 
0.14956 0.15059 0.15167 0.152131 0.152808 0.152907 0.153423 0.15336 0.15383 
0.153763 0.153965 0.154178 0.147879 0.14457 0.141497 0.141049 0.14113 0.140897 
0.140673 0.141252 0.142477 0.144341 0.146029 0.147958 0.149588 0.150995 0.151843 
0.152646 0.152915 0.153432 0.153447 0.15393 0.153869 0.154258 0.154316 0.154228 
0.150877 0.148179 0.143448 0.141844 0.141243 0.141097 0.141146 0.141669 0.143038 
0.144785 0.146729 0.148768 0.150468 0.151749 0.152719 0.15321 0.153754 0.153856 
0.154221 0.154246 0.154499 0.154569 0.154629 0.15475 0.154457 0.151506 0.146105 
0.142682 0.141622 0.141464 0.142143 0.142933 0.144498 0.146072 0.148074 0.149985 
0.151649 0.152834 0.153619 0.154233 0.154499 0.154825 0.154896 0.155071 0.155082 
0.155204 0.15516 0.155074 0.157213 0.154543 0.148763 0.144543 0.142442 0.142489 
0.14324 0.144634 0.146029 0.14784 0.149632 0.151488 0.152961 0.154065 0.154794 
0.155294 0.155612 0.1558 0.155872 0.155926 0.155865 0.15592 0.155774 0.155804 
0.160339 0.156847 0.152127 0.147221 0.144493 0.143844 0.144782 0.14583 0.147823 
0.14947 0.151377 0.153146 0.154546 0.155464 0.156231 0.156598 0.156942 0.157011 
0.157106 0.157023 0.156992 0.156936 0.156831 0.156647 0.162223 0.159657 0.155402 
0.150847 0.1472 0.146003 0.146053 0.147423 0.14919 0.151213 0.153275 0.155018 
0.15624 0.157299 0.157776 0.158318 0.158432 0.158638 0.158552 0.15857 0.158441 
0.158471 0.1583 0.15831 0.164464 0.162107 0.159027 0.154381 0.150669 0.148289 
0.148089 0.148839 0.151045 0.153112 0.155321 0.156948 0.158351 0.159036 0.159817 
0.160048 0.160402 0.160405 0.160493 0.160469 0.160448 0.160497 0.160407 0.160243 
0.165855 0.164741 0.161987 0.158017 0.153989 0.151334 0.150275 0.151031 0.152956 
0.155271 0.157313 0.15905 0.160018 0.161021 0.161412 0.161879 0.161972 0.162127 
0.162171 0.162196 0.16224 0.162276 0.162187 0.162253 0.167898 0.16691 0.16499 
0.161273 0.157902 0.154826 0.15339 0.153524 0.155342 0.157347 0.159334 0.160592 
0.161769 0.162378 0.163004 0.163214 0.163438 0.163547 0.163592 0.1637 0.163679 
0.163769 0.163725 0.16358 0.169389 0.168722 0.1669 0.163894 0.160986 0.158182 
0.156479 0.1563 0.157842 0.159777 0.161381 0.162576 0.163273 0.163753 0.163771 
0.163792 0.163763 0.163682 0.163743 0.16364 0.163725 0.163679 0.163753 0.163701 
0.131309 0.130712 0.129633 0.130515 0.132274 0.13516 0.138028 0.14107 0.14349 
0.145836 0.147393 0.149079 0.150129 0.151612 0.152503 0.153582 0.154009 0.15479 
0.154977 0.155674 0.155675 0.156234 0.156039 0.156168 0.135456 0.141542 0.139008 
0.137722 0.137482 0.139809 0.143133 0.147353 0.150884 0.154395 0.156147 0.15811 
0.158749 0.15977 0.159683 0.159748 0.159288 0.158609 0.157966 0.157176 0.156708 
0.156402 0.156036 0.155855 0.139563 0.141933 0.1421 0.14028 0.139889 0.141494 
0.144487 0.147934 0.150423 0.152363 0.153582 0.154695 0.155154 0.155172 0.155001 
0.154646 0.154553 0.154354 0.154367 0.154277 0.15439 0.154332 0.154457 0.154185 
0.141839 0.141623 0.141111 0.140669 0.140527 0.141422 0.143399 0.145868 0.147837 
0.14942 0.150241 0.150927 0.15091 0.151402 0.151254 0.151786 0.151783 0.152322 
0.152423 0.152839 0.15292 0.153204 0.153126 0.153218 0.14455 0.141917 0.140561 
0.14077 0.141273 0.141504 0.142243 0.143421 0.145027 0.146304 0.147636 0.148224 
0.149268 0.149668 0.150597 0.150905 0.151603 0.151815 0.152264 0.152393 0.152654 
0.15273 0.152857 0.152623 0.14681 0.143812 0.141193 0.141116 0.14155 0.141644 
0.141547 0.142218 0.143295 0.145027 0.146387 0.148038 0.148928 0.15018 0.150719 
0.151563 0.151811 0.152297 0.152388 0.152657 0.152675 0.152831 0.152714 0.152831 
0.150455 0.147102 0.142911 0.141645 0.141557 0.141586 0.141981 0.142286 0.143552 
0.145005 0.146921 0.148279 0.149894 0.150707 0.151778 0.152126 0.152688 0.152767 
0.153008 0.153065 0.153136 0.153214 0.153267 0.153028 0.153905 0.150518 0.145258 
0.142504 0.141641 0.14202 0.142651 0.143574 0.144684 0.146285 0.147636 0.149506 
0.150535 0.151874 0.152385 0.153095 0.153185 0.153442 0.153431 0.153512 0.153552 
0.153639 0.153577 0.153643 0.15777 0.153429 0.147974 0.143989 0.142528 0.142684 
0.143961 0.144748 0.146461 0.147467 0.149244 0.150362 0.151871 0.152554 0.153448 
0.153625 0.153964 0.153977 0.154081 0.154184 0.154244 0.154408 0.154444 0.1543 
0.160565 0.156076 0.15095 0.146529 0.144027 0.144137 0.144804 0.14628 0.14759 
0.149195 0.150367 0.151913 0.152759 0.153812 0.154131 0.154614 0.154725 0.154951 
0.155079 0.155261 0.155385 0.155579 0.155515 0.155516 0.163203 0.158551 0.154236 
0.149636 0.146489 0.145466 0.146199 0.147124 0.149009 0.150243 0.151905 0.153015 
0.15425 0.154813 0.155504 0.155817 0.156244 0.156497 0.156806 0.157013 0.157189 
0.157333 0.157312 0.157178 0.164506 0.161031 0.157393 0.153061 0.149312 0.147506 
0.147282 0.148518 0.149997 0.151687 0.153204 0.154647 0.155588 0.15655 0.157149 
0.157824 0.158259 0.158751 0.15901 0.159285 0.159352 0.159544 0.159373 0.159452 
0.166281 0.16345 0.160399 0.156264 0.152485 0.149719 0.149158 0.149753 0.151412 
0.153072 0.154797 0.156164 0.157408 0.158312 0.159213 0.159857 0.160541 0.160922 
0.161308 0.161452 0.161573 0.161625 0.161572 0.161448 0.167427 0.165581 0.163278 
0.159512 0.155853 0.152914 0.151439 0.151685 0.153063 0.154683 0.156329 0.157723 
0.158986 0.160102 0.161008 0.161907 0.162422 0.162926 0.1631 0.163275 0.163256 
0.163315 0.163153 0.163261 0.16908 0.167498 0.165404 0.162174 0.158794 0.155986 
0.154002 0.153954 0.155087 0.157007 0.158786 0.16048 0.161852 0.163205 0.164316 
0.164734 0.165131 0.165109 0.165141 0.16498 0.164875 0.164706 0.16462 0.164251 
0.129792 0.128882 0.128342 0.129308 0.131726 0.134066 0.13788 0.140566 0.143329 
0.145104 0.147047 0.148043 0.149612 0.150641 0.152052 0.152852 0.153661 0.153978 
0.154563 0.154725 0.155138 0.155195 0.155243 0.155106 0.133716 0.137966 0.13515 
0.133768 0.134947 0.137632 0.141091 0.144666 0.148434 0.151239 0.153975 0.155625 
0.157433 0.158057 0.158731 0.158714 0.158584 0.158213 0.15763 0.157167 0.156621 
0.156438 0.156122 0.15599 0.137718 0.140245 0.140334 0.137932 0.1378 0.139641 
0.1433 0.14677 0.149947 0.151787 0.153432 0.154305 0.155133 0.155212 0.155246 
0.154893 0.154794 0.154568 0.154546 0.154442 0.154479 0.154476 0.154422 0.154355 
0.142268 0.14117 0.140416 0.139847 0.139679 0.140555 0.142551 0.145231 0.147736 
0.149652 0.150624 0.151323 0.151369 0.1516 0.151513 0.151825 0.15192 0.152278 
0.15241 0.152724 0.15277 0.152997 0.152949 0.152843 0.143955 0.141676 0.139998 
0.13995 0.140436 0.140612 0.141527 0.142982 0.144838 0.146175 0.147576 0.147919 
0.148835 0.149174 0.150055 0.150484 0.151144 0.151391 0.151798 0.151857 0.15212 
0.152116 0.152167 0.15206 0.146873 0.143145 0.140359 0.1403 0.140504 0.140614 
0.140576 0.141423 0.142333 0.144183 0.145317 0.147084 0.147938 0.149303 0.149998 
0.150888 0.151244 0.151716 0.151818 0.152147 0.152102 0.152419 0.152331 0.152226 
0.14991 0.146327 0.142132 0.140733 0.140651 0.140484 0.140718 0.140929 0.142295 
0.14356 0.14559 0.146925 0.148701 0.14967 0.150838 0.151336 0.151918 0.152039 
0.15235 0.152288 0.152552 0.15244 0.152492 0.152391 0.154284 0.150436 0.144777 
0.141873 0.140742 0.140968 0.141292 0.14211 0.143069 0.144786 0.146108 0.148041 
0.149145 0.15062 0.151294 0.152076 0.152308 0.152662 0.152637 0.15291 0.15279 
0.153081 0.152982 0.152859 0.157852 0.153859 0.148001 0.143413 0.141735 0.141584 
0.142714 0.143364 0.144899 0.145905 0.147682 0.148743 0.150325 0.151108 0.15212 
0.152529 0.152999 0.153073 0.153324 0.153272 0.153481 0.153445 0.153502 0.153379 
0.161891 0.156886 0.151049 0.146178 0.143149 0.143127 0.143682 0.145041 0.146201 
0.147703 0.148712 0.15027 0.151066 0.152254 0.152831 0.15352 0.153778 0.154166 
0.154226 0.154517 0.154472 0.154773 0.154619 0.154587 0.163825 0.159296 0.154417 
0.149271 0.145824 0.144485 0.145135 0.146016 0.147718 0.148767 0.150392 0.151279 
0.15262 0.153365 0.154344 0.154863 0.155482 0.15574 0.15611 0.156205 0.156417 
0.156468 0.156446 0.156325 0.165908 0.161876 0.157721 0.153016 0.148736 0.146668 
0.146294 0.147415 0.14875 0.150411 0.151537 0.153137 0.154089 0.155408 0.156234 
0.157166 0.157682 0.158237 0.158485 0.158784 0.158806 0.158979 0.158764 0.158767 
0.166612 0.163882 0.160764 0.156285 0.152249 0.149026 0.148197 0.148584 0.150323 
0.151612 0.15348 0.15471 0.156361 0.157493 0.158749 0.159552 0.160324 0.160759 
0.161134 0.161256 0.161365 0.161321 0.161231 0.161164 0.168147 0.166054 0.16348 
0.15969 0.155576 0.152308 0.150458 0.150669 0.151827 0.153644 0.155099 0.156843 
0.158261 0.159779 0.160927 0.161979 0.162611 0.163082 0.163236 0.163366 0.163262 
0.163369 0.163114 0.163127 0.168734 0.16762 0.165648 0.162275 0.158751 0.155342 
0.153166 0.15279 0.154037 0.155717 0.158243 0.16006 0.16212 0.163409 0.164722 
0.165323 0.16555 0.165524 0.165337 0.165088 0.164867 0.164661 0.164437 0.164252 
0.128443 0.127631 0.127086 0.128665 0.13047 0.134247 0.136991 0.14065 0.142855 
0.145148 0.146343 0.147922 0.148863 0.150274 0.151287 0.152328 0.152923 0.153439 
0.153706 0.154166 0.154266 0.154668 0.154461 0.154487 0.131682 0.135204 0.131694 
0.131709 0.133086 0.136402 0.139727 0.143501 0.146305 0.149373 0.151454 0.154046 
0.155565 0.157138 0.157676 0.158093 0.158051 0.157894 0.15751 0.157101 0.156738 
0.156532 0.15632 0.156126 0.136743 0.137704 0.136601 0.134825 0.134663 0.137136 
0.140949 0.145028 0.148509 0.150956 0.152712 0.153859 0.154645 0.155004 0.155046 
0.154894 0.154672 0.15457 0.154445 0.154452 0.154382 0.154446 0.154337 0.154181 
0.140498 0.139865 0.138999 0.137786 0.1375 0.138762 0.141388 0.144416 0.14727 
0.149419 0.150861 0.151423 0.151725 0.151641 0.151665 0.151652 0.151824 0.151943 
0.152134 0.152214 0.152364 0.152403 0.152416 0.152325 0.144124 0.141126 0.139182 
0.13911 0.139238 0.139737 0.140627 0.142608 0.144537 0.146471 0.147387 0.148217 
0.148398 0.148928 0.149353 0.149948 0.150357 0.150807 0.151005 0.151331 0.151329 
0.151601 0.151535 0.151469 0.146421 0.14289 0.13994 0.139532 0.13973 0.139536 
0.139836 0.140547 0.142012 0.143113 0.144801 0.14569 0.147123 0.147939 0.149001 
0.149627 0.150272 0.150551 0.150943 0.150989 0.151284 0.151244 0.151314 0.151213 
0.150067 0.145907 0.141616 0.140257 0.139725 0.139571 0.139406 0.13992 0.140603 
0.14232 0.143501 0.145527 0.146642 0.148245 0.149099 0.15003 0.150452 0.150937 
0.15106 0.151412 0.151367 0.151704 0.151613 0.151524 0.15393 0.149873 0.144665 
0.141163 0.140175 0.139736 0.140111 0.140238 0.141476 0.142468 0.144393 0.145488 
0.147401 0.148395 0.14967 0.150295 0.150904 0.151139 0.151458 0.151463 0.151724 
0.151644 0.151692 0.15161 0.158765 0.154364 0.14786 0.14317 0.140772 0.140697 
0.140961 0.141869 0.142549 0.144118 0.144997 0.146817 0.147736 0.149263 0.150045 
0.150859 0.15127 0.151626 0.151707 0.151986 0.151895 0.15224 0.152072 0.151968 
0.16228 0.157526 0.151536 0.1456 0.14244 0.141648 0.142483 0.143019 0.14449 
0.145134 0.146824 0.147573 0.149146 0.149953 0.151019 0.151577 0.152094 0.152281 
0.152576 0.152596 0.152805 0.152827 0.152847 0.152719 0.165636 0.160484 0.154734 
0.14911 0.144727 0.143437 0.143312 0.144614 0.145503 0.147054 0.147852 0.149421 
0.150219 0.151516 0.15225 0.153057 0.153449 0.153916 0.15406 0.154368 0.154373 
0.154631 0.154462 0.154413 0.166528 0.162563 0.158253 0.1526 0.148139 0.14515 
0.145025 0.145578 0.147223 0.148202 0.149878 0.15077 0.152305 0.153242 0.154432 
0.155143 0.155859 0.156217 0.156589 0.156732 0.156872 0.156916 0.156836 0.156758 
0.167938 0.164815 0.16119 0.156344 0.15137 0.14801 0.146433 0.147325 0.14849 
0.150132 0.1513 0.153071 0.154235 0.155844 0.156882 0.157899 0.158505 0.159007 
0.159276 0.159505 0.159508 0.159709 0.15943 0.159519 0.16817 0.166295 0.163818 
0.15956 0.155207 0.150999 0.149196 0.14896 0.150527 0.151837 0.153719 0.155063 
0.156819 0.158141 0.159446 0.160404 0.161105 0.16157 0.161831 0.161887 0.161932 
0.161841 0.161749 0.161704 0.168987 0.167796 0.165822 0.162284 0.158338 0.154428 
0.151904 0.151487 0.152469 0.154311 0.156186 0.158818 0.160576 0.162399 0.16334 
0.164138 0.164552 0.16458 0.16448 0.164271 0.164031 0.163943 0.163647 0.163535 
0.127024 0.126102 0.126179 0.127584 0.13067 0.133742 0.13753 0.140257 0.143035 
0.144616 0.146337 0.147217 0.148556 0.149556 0.150713 0.151563 0.152208 0.152592 
0.152991 0.153232 0.153504 0.153587 0.1536 0.153511 0.13032 0.133248 0.130453 
0.130339 0.132493 0.135837 0.13945 0.142753 0.145629 0.147872 0.150192 0.152137 
0.154404 0.155779 0.156826 0.157292 0.157468 0.157421 0.157133 0.156815 0.156498 
0.15634 0.15614 0.156044 0.134247 0.134627 0.132743 0.13155 0.13202 0.134601 
0.138597 0.142732 0.146473 0.149322 0.15154 0.152913 0.15394 0.154326 0.154606 
0.154529 0.154468 0.154329 0.154295 0.154234 0.154256 0.154243 0.154197 0.154123 
0.139076 0.137409 0.135771 0.134266 0.133957 0.135921 0.139091 0.14286 0.146111 
0.148821 0.150339 0.151396 0.151606 0.151694 0.151597 0.151672 0.151716 0.151926 
0.152006 0.152213 0.152213 0.152386 0.152327 0.152196 0.142656 0.140204 0.13809 
0.136954 0.137129 0.137514 0.139344 0.141706 0.144252 0.146116 0.147665 0.148177 
0.148669 0.148741 0.149221 0.149515 0.149998 0.150259 0.150629 0.150718 0.150992 
0.15097 0.151059 0.150967 0.146393 0.142702 0.139375 0.138874 0.138329 0.138424 
0.138711 0.139974 0.141332 0.14314 0.14394 0.145477 0.146164 0.147447 0.148168 
0.149035 0.149512 0.150042 0.150238 0.150619 0.150623 0.150928 0.150909 0.150867 
0.14981 0.145638 0.141345 0.139577 0.139195 0.138459 0.138392 0.13848 0.139718 
0.140631 0.142625 0.143684 0.1457 0.146795 0.148125 0.148883 0.149569 0.149864 
0.150265 0.15029 0.150621 0.150532 0.150636 0.150559 0.15449 0.149839 0.144248 
0.140913 0.139338 0.138925 0.138498 0.138816 0.139312 0.141001 0.142058 0.144146 
0.145257 0.147008 0.148 0.148944 0.149463 0.149928 0.150075 0.150438 0.15038 
0.150746 0.150666 0.150581 0.158903 0.154124 0.148121 0.142645 0.140208 0.139366 
0.139661 0.13974 0.140852 0.141548 0.143374 0.144175 0.145999 0.146948 0.148196 
0.148934 0.149537 0.149838 0.150193 0.150207 0.150505 0.150447 0.150541 0.150457 
0.163577 0.158429 0.15155 0.145511 0.141547 0.140632 0.140631 0.141611 0.141985 
0.143465 0.143938 0.145628 0.146282 0.147746 0.148597 0.149471 0.150003 0.150469 
0.15064 0.150992 0.150957 0.15131 0.151132 0.151031 0.166229 0.161078 0.155334 
0.148684 0.144149 0.141982 0.142221 0.142563 0.143972 0.144274 0.14587 0.146268 
0.147787 0.148642 0.149844 0.150609 0.151266 0.151625 0.151977 0.152079 0.152281 
0.152305 0.152292 0.152156 0.16833 0.163749 0.158577 0.152625 0.147269 0.144295 
0.143339 0.144282 0.144882 0.146358 0.146806 0.148369 0.14914 0.150686 0.15169 
0.152692 0.153315 0.15385 0.154108 0.15441 0.154439 0.154694 0.154495 0.154514 
0.168563 0.165424 0.161748 0.156247 0.151031 0.14676 0.145428 0.145304 0.1468 
0.147469 0.149105 0.1499 0.151707 0.152926 0.154403 0.155338 0.156135 0.15659 
0.15695 0.157099 0.157256 0.157272 0.157243 0.157226 0.169195 0.166868 0.164126 
0.159687 0.154644 0.150334 0.147562 0.147529 0.148342 0.149807 0.150874 0.152774 
0.154111 0.155897 0.157146 0.1582 0.15896 0.159436 0.159757 0.159986 0.159979 
0.16024 0.159966 0.16009 0.168837 0.167924 0.166028 0.162295 0.157994 0.153649 
0.150776 0.149892 0.15082 0.151958 0.153721 0.155468 0.157942 0.159657 0.161263 
0.161991 0.162409 0.162664 0.162707 0.162625 0.162513 0.162299 0.162155 0.162018 
0.125731 0.124996 0.125227 0.127136 0.130129 0.134011 0.137276 0.140449 0.142648 
0.144649 0.145624 0.147038 0.147932 0.149108 0.150021 0.150851 0.151388 0.151815 
0.15208 0.152492 0.152588 0.152944 0.152835 0.152848 0.128378 0.131624 0.129487 
0.130044 0.132208 0.135714 0.139401 0.142815 0.145316 0.147488 0.14903 0.151158 
0.152787 0.154626 0.155583 0.156214 0.156507 0.15655 0.15638 0.156166 0.155934 
0.155832 0.155673 0.155566 0.132738 0.132054 0.129726 0.129152 0.130373 0.133337 
0.137093 0.141028 0.144526 0.147603 0.149972 0.151815 0.152792 0.15351 0.153768 
0.15399 0.153969 0.154025 0.153937 0.153986 0.153894 0.153986 0.153845 0.153745 
0.136718 0.134346 0.132129 0.130611 0.130679 0.132695 0.136742 0.140823 0.14447 
0.147357 0.149625 0.15066 0.151304 0.151337 0.151425 0.151391 0.151549 0.151582 
0.151775 0.151776 0.151931 0.151897 0.151937 0.151848 0.141212 0.138148 0.135381 
0.134306 0.133748 0.134893 0.13709 0.140446 0.143382 0.145813 0.147138 0.148256 
0.148493 0.148871 0.148986 0.149417 0.14964 0.150051 0.15019 0.150535 0.150536 
0.150808 0.150803 0.150769 0.145312 0.141839 0.138406 0.137047 0.136928 0.136546 
0.137513 0.138964 0.141118 0.142564 0.14416 0.144755 0.146043 0.146675 0.147686 
0.148242 0.14889 0.149178 0.149626 0.149673 0.15006 0.149978 0.150126 0.150066 
0.149934 0.14572 0.14097 0.139115 0.137968 0.137614 0.137162 0.137656 0.138402 
0.140162 0.141029 0.143 0.144061 0.145779 0.146791 0.147795 0.148368 0.148941 
0.149137 0.149582 0.149569 0.149921 0.149924 0.149917 0.154599 0.149721 0.144364 
0.140418 0.138851 0.137688 0.137316 0.137006 0.137869 0.138747 0.140704 0.141778 
0.14382 0.144972 0.146366 0.147209 0.147959 0.148303 0.148779 0.148798 0.149217 
0.149116 0.149279 0.149212 0.159715 0.154448 0.147989 0.14257 0.139364 0.138337 
0.137754 0.137997 0.138249 0.139631 0.140583 0.142422 0.143374 0.144998 0.145946 
0.14692 0.147506 0.148075 0.148262 0.148717 0.148678 0.149088 0.148989 0.148922 
0.163866 0.158505 0.152033 0.14507 0.140868 0.139092 0.13907 0.139156 0.140074 
0.140474 0.14202 0.142614 0.144176 0.145008 0.146206 0.146967 0.147665 0.148044 
0.148472 0.148585 0.148877 0.148887 0.148977 0.148902 0.167564 0.162119 0.155614 
0.148618 0.143177 0.140754 0.140118 0.140866 0.141225 0.14249 0.142761 0.144174 
0.144695 0.146063 0.146939 0.147883 0.148487 0.149051 0.149313 0.149711 0.149739 
0.150119 0.14996 0.1499 0.168993 0.16433 0.159096 0.152308 0.146579 0.142844 
0.141856 0.141905 0.14319 0.14349 0.144857 0.145104 0.14656 0.147475 0.148763 
0.149644 0.150426 0.150893 0.151326 0.151467 0.151736 0.151717 0.151756 0.15163 
0.169892 0.166425 0.162096 0.156171 0.150244 0.145728 0.143451 0.143849 0.144399 
0.14568 0.146005 0.147489 0.148293 0.149992 0.151115 0.15229 0.152994 0.153615 
0.153864 0.154227 0.154203 0.154562 0.154379 0.154459 0.169601 0.167247 0.164359 
0.159482 0.154141 0.14901 0.146308 0.145519 0.146611 0.147175 0.148621 0.149487 
0.151366 0.152687 0.1542 0.155144 0.155912 0.156298 0.156687 0.15677 0.157047 
0.157003 0.157079 0.157076 0.169398 0.168236 0.166079 0.162153 0.157481 0.152743 
0.149416 0.148377 0.148802 0.14998 0.150977 0.152492 0.153959 0.155758 0.157084 
0.158175 0.158672 0.159096 0.159105 0.159333 0.159229 0.159483 0.159181 0.159179 
0.124608 0.123809 0.12439 0.126385 0.129856 0.133654 0.137368 0.140227 0.14273 
0.144109 0.145735 0.146491 0.147783 0.148668 0.149623 0.150309 0.150839 0.151105 
0.151499 0.151607 0.151945 0.15191 0.152066 0.152038 0.126955 0.13007 0.12868 
0.129315 0.13196 0.13564 0.139434 0.142613 0.14528 0.147052 0.148705 0.150012 
0.151911 0.153132 0.154318 0.154942 0.155323 0.155434 0.155374 0.155214 0.155068 
0.155012 0.15485 0.154785 0.130183 0.130317 0.128196 0.128161 0.129766 0.132892 