# vtk DataFile Version 5.1
vtk output
ASCII
DATASET POLYDATA
POINTS 616 float
1.98464 0.915359 -0.55 1.98764 0.915359 -0.553 1.99073 0.915359 -0.55609 
1.994 0.915359 -0.559363 1.99756 0.915359 -0.562918 2.0015 0.915359 -0.566862 
2.00595 0.915359 -0.571312 2.01104 0.915359 -0.576403 2.01693 0.915359 -0.582287 
2.02378 0.915359 -0.589143 2.02623 0.915359 -0.591589 2.02997 0.909171 -0.589143 
2.03182 0.915359 -0.597175 2.04127 0.915359 -0.606626 2.05242 0.915359 -0.617779 
2.06561 0.915359 -0.630969 2.08124 0.915359 -0.646595 2.09209 0.915359 -0.657449 
2.09977 0.915359 -0.665124 2.12176 0.915359 -0.687115 2.14787 0.915359 -0.713228 
2.17889 0.915359 -0.744248 2.18481 0.915359 -0.750169 2.21575 0.915359 -0.781109 
2.25956 0.915359 -0.824918 2.31163 0.915359 -0.876993 2.31554 0.915359 -0.880899 
2.31663 0.910362 -0.876993 2.37354 0.915359 -0.938899 2.44714 0.915359 -1.0125 
2.5 0.915359 -1.06536 1.99305 0.906954 -0.55 1.99603 0.90697 -0.553 
1.9991 0.906986 -0.55609 2.00236 0.907004 -0.559363 2.0059 0.907022 -0.562918 
2.00982 0.907043 -0.566862 2.01425 0.907067 -0.571312 2.01931 0.907094 -0.576403 
2.02516 0.907125 -0.582287 2.03119 0.907157 -0.588347 2.03198 0.907161 -0.589143 
2.03998 0.907198 -0.597175 2.04938 0.907243 -0.606626 2.06048 0.907295 -0.617779 
2.07361 0.907357 -0.630969 2.08916 0.907431 -0.646595 2.09627 0.907464 -0.653734 
2.10762 0.907508 -0.665124 2.12952 0.907593 -0.687115 2.15553 0.907694 -0.713228 
2.18643 0.907813 -0.744248 2.18785 0.907819 -0.745669 2.18875 0.905498 -0.744248 
2.22319 0.907915 -0.781109 2.26689 0.908033 -0.824918 2.31711 0.908169 -0.875279 
2.31882 0.908171 -0.876993 2.38066 0.908235 -0.938899 2.45419 0.908311 -1.0125 
2.5 0.908359 -1.05836 2.00226 0.89774 -0.55 2.00523 0.897771 -0.553 
2.00829 0.897803 -0.55609 2.01153 0.897837 -0.559363 2.01504 0.897874 -0.562918 
2.01895 0.897915 -0.566862 2.02335 0.897961 -0.571312 2.02839 0.898014 -0.576403 
2.03421 0.898075 -0.582287 2.03642 0.898098 -0.584518 2.03918 0.893104 -0.582287 
2.041 0.898141 -0.589143 2.04896 0.898214 -0.597175 2.05832 0.898301 -0.606626 
2.06938 0.898404 -0.617779 2.08244 0.898525 -0.630969 2.09793 0.898669 -0.646595 
2.10071 0.898695 -0.649405 2.10336 0.893234 -0.646595 2.11631 0.898814 -0.665124 
2.13813 0.898981 -0.687115 2.16405 0.899179 -0.713228 2.19112 0.899386 -0.740506 
2.19484 0.899406 -0.744248 2.23151 0.899601 -0.781109 2.27508 0.899833 -0.824918 
2.31883 0.900066 -0.868896 2.32691 0.900083 -0.876993 2.38869 0.900209 -0.938899 
2.46214 0.90036 -1.0125 2.5 0.900438 -1.05044 2.01237 0.887627 -0.55 
2.01533 0.887673 -0.553 2.01837 0.88772 -0.55609 2.02159 0.88777 -0.559363 
2.02509 0.887824 -0.562918 2.02898 0.887884 -0.566862 2.03336 0.887951 -0.571312 
2.03837 0.888029 -0.576403 2.04196 0.888084 -0.580044 2.04605 0.880353 -0.576403 
2.04417 0.888114 -0.582287 2.05094 0.888207 -0.589143 2.05886 0.888315 -0.597175 
2.06818 0.888442 -0.606626 2.07919 0.888592 -0.617779 2.0922 0.88877 -0.630969 
2.10544 0.888951 -0.644391 2.10762 0.888976 -0.646595 2.12594 0.889182 -0.665124 
2.14769 0.889426 -0.687115 2.17351 0.889717 -0.713228 2.19462 0.889954 -0.734574 
2.20422 0.890029 -0.744248 2.24079 0.890316 -0.781109 2.28426 0.890657 -0.824918 
2.3207 0.890943 -0.861643 2.336 0.890989 -0.876993 2.39772 0.891176 -0.938899 
2.4711 0.891398 -1.0125 2.5 0.891486 -1.04149 2.02348 0.876517 -0.55 
2.02642 0.876576 -0.553 2.02945 0.876637 -0.55609 2.03266 0.876702 -0.559363 
2.03615 0.876772 -0.562918 2.04001 0.87685 -0.566862 2.04437 0.876938 -0.571312 
2.04782 0.877007 -0.574827 2.05143 0.869882 -0.571312 2.04937 0.877035 -0.576403 
2.05515 0.877138 -0.582287 2.06189 0.877258 -0.589143 2.06978 0.877398 -0.597175 
2.07906 0.877564 -0.606626 2.09002 0.877759 -0.617779 2.10298 0.87799 -0.630969 
2.11047 0.878124 -0.638594 2.11836 0.87824 -0.646595 2.13662 0.878507 -0.665124 
2.15829 0.878825 -0.687115 2.18403 0.879202 -0.713228 2.19839 0.879413 -0.727803 
2.21467 0.879579 -0.744248 2.25116 0.879952 -0.781109 2.29452 0.880396 -0.824918 
2.32275 0.880684 -0.853434 2.34622 0.880777 -0.876993 2.40788 0.88102 -0.938899 
2.48119 0.88131 -1.0125 2.5 0.881384 -1.03138 2.0357 0.8643 -0.55 
2.03863 0.864372 -0.553 2.04164 0.864446 -0.55609 2.04484 0.864524 -0.559363 
2.04831 0.86461 -0.562918 2.05216 0.864704 -0.566862 2.0596 0.853315 -0.562918 
2.05403 0.86475 -0.56878 2.05585 0.861009 -0.566862 2.05651 0.864804 -0.571312 
2.06149 0.864912 -0.576403 2.06725 0.865037 -0.582287 2.07396 0.865183 -0.589143 
2.08182 0.865353 -0.597175 2.09107 0.865554 -0.606626 2.10199 0.865791 -0.617779 
2.1149 0.866072 -0.630969 2.11584 0.866092 -0.631932 2.11656 0.864406 -0.630969 
2.13025 0.866349 -0.646595 2.14845 0.866674 -0.665124 2.17006 0.86706 -0.687115 
2.19571 0.867518 -0.713228 2.20245 0.867638 -0.720088 2.20588 0.857348 -0.713228 
2.22631 0.867935 -0.744248 2.26272 0.868389 -0.781109 2.30599 0.868927 -0.824918 
2.32498 0.869164 -0.844144 2.35767 0.869321 -0.876993 2.41928 0.869618 -0.938899 
2.49253 0.86997 -1.0125 2.5 0.870006 -1.02001 2.5 0.8625 -1.0125 
2.04914 0.850858 -0.55 2.05206 0.850942 -0.553 2.05506 0.851028 -0.55609 
2.05824 0.851119 -0.559363 2.06568 0.840406 -0.55609 2.06064 0.851187 -0.561827 
2.06281 0.846556 -0.559363 2.0617 0.851214 -0.562918 2.06555 0.851311 -0.566862 
2.06989 0.851421 -0.571312 2.07486 0.851547 -0.576403 2.0806 0.851692 -0.582287 
2.08728 0.851861 -0.589143 2.09512 0.852059 -0.597175 2.10433 0.852292 -0.606626 
2.11521 0.852567 -0.617779 2.12157 0.852728 -0.624298 2.12617 0.841605 -0.617779 
2.12811 0.852864 -0.630969 2.14341 0.853182 -0.646595 2.16157 0.853559 -0.665124 
2.18311 0.854006 -0.687115 2.20683 0.854499 -0.711329 2.2087 0.854526 -0.713228 
2.23928 0.854969 -0.744248 2.27561 0.855496 -0.781109 2.3188 0.856122 -0.824918 
2.32743 0.856247 -0.833677 2.32943 0.845485 -0.824918 2.3705 0.856488 -0.876993 
2.43207 0.856833 -0.938899 2.5 0.857214 -1.00721 2.06394 0.836063 -0.55 
2.06684 0.836157 -0.553 2.07082 0.829183 -0.55 2.06766 0.836183 -0.553843 
2.06835 0.834647 -0.553 2.06984 0.836245 -0.55609 2.07303 0.836336 -0.559363 
2.07648 0.836434 -0.562918 2.08032 0.836544 -0.566862 2.08465 0.836667 -0.571312 
2.0896 0.836808 -0.576403 2.09532 0.836971 -0.582287 2.10198 0.837161 -0.589143 
2.10979 0.837383 -0.597175 2.11898 0.837645 -0.606626 2.12771 0.837894 -0.615604 
2.13368 0.822943 -0.606626 2.12984 0.837944 -0.617779 2.14272 0.838245 -0.630969 
2.15799 0.838603 -0.646595 2.1761 0.839026 -0.665124 2.19759 0.839529 -0.687115 
2.21155 0.839856 -0.701406 2.22318 0.840046 -0.713228 2.2537 0.840544 -0.744248 
2.28997 0.841136 -0.781109 2.33012 0.841791 -0.821911 2.33311 0.84181 -0.824918 
2.38486 0.842137 -0.876993 2.44637 0.842526 -0.938899 2.5 0.842865 -0.992865 
2.08024 0.819757 -0.55 2.08315 0.819848 -0.553 2.08615 0.819942 -0.55609 
2.08932 0.820041 -0.559363 2.09277 0.820149 -0.562918 2.09659 0.820268 -0.566862 
2.10091 0.820404 -0.571312 2.10584 0.820558 -0.576403 2.11155 0.820737 -0.582287 
2.1182 0.820945 -0.589143 2.12599 0.821188 -0.597175 2.13428 0.821448 -0.605728 
2.13967 0.807503 -0.597175 2.13516 0.82147 -0.606626 2.14603 0.82175 -0.617779 
2.15889 0.82208 -0.630969 2.17412 0.822472 -0.646595 2.19219 0.822936 -0.665124 
2.21363 0.823486 -0.687115 2.21665 0.823564 -0.690214 2.21801 0.819108 -0.687115 
2.23926 0.823969 -0.713228 2.26973 0.824515 -0.744248 2.30595 0.825163 -0.781109 
2.33305 0.825649 -0.808699 2.34916 0.825761 -0.824918 2.40087 0.826119 -0.876993 
2.46235 0.826546 -0.938899 2.5 0.826807 -0.976807 2.09821 0.801789 -0.55 
2.10111 0.801887 -0.553 2.1041 0.801988 -0.55609 2.10727 0.802094 -0.559363 
2.11071 0.80221 -0.562918 2.11452 0.802339 -0.566862 2.11883 0.802484 -0.571312 
2.12375 0.802649 -0.576403 2.12945 0.802841 -0.582287 2.13608 0.803064 -0.589143 
2.14871 0.78358 -0.582287 2.14132 0.803241 -0.594561 2.14458 0.794562 -0.589143 
2.14386 0.803311 -0.597175 2.15306 0.803565 -0.606626 2.16391 0.803865 -0.617779 
2.17675 0.804219 -0.630969 2.19196 0.804638 -0.646595 2.20999 0.805136 -0.665124 
2.22216 0.805472 -0.677632 2.22744 0.787684 -0.665124 2.23146 0.805651 -0.687115 
2.25708 0.806144 -0.713228 2.28752 0.806729 -0.744248 2.32368 0.807425 -0.781109 
2.33626 0.807667 -0.793927 2.33899 0.792116 -0.781109 2.36702 0.807896 -0.824918 
2.41871 0.808282 -0.876993 2.48016 0.80874 -0.938899 2.5 0.808888 -0.958888 
2.11798 0.782021 -0.55 2.12088 0.782124 -0.553 2.12386 0.78223 -0.55609 
2.12702 0.782343 -0.559363 2.13045 0.782465 -0.562918 2.13426 0.7826 -0.566862 
2.13856 0.782753 -0.571312 2.14348 0.782928 -0.576403 2.15505 0.76626 -0.571312 
2.14888 0.78312 -0.582 2.15211 0.774291 -0.576403 2.14916 0.783128 -0.582287 
2.15582 0.783322 -0.589143 2.16363 0.783549 -0.597175 2.17281 0.783817 -0.606626 
2.18365 0.784132 -0.617779 2.19646 0.784505 -0.630969 2.21165 0.784948 -0.646595 
2.22811 0.785427 -0.663537 2.22967 0.785459 -0.665124 2.25122 0.785896 -0.687115 
2.27681 0.786415 -0.713228 2.30722 0.787032 -0.744248 2.33977 0.787692 -0.777462 
2.34339 0.787721 -0.781109 2.38686 0.788063 -0.824918 2.43852 0.788469 -0.876993 
2.49995 0.788953 -0.938899 2.5 0.788953 -0.938953 2.5 0.788899 -0.938899 
2.1397 0.760299 -0.55 2.14259 0.760406 -0.553 2.14557 0.760516 -0.55609 
2.14873 0.760633 -0.559363 2.15216 0.760759 -0.562918 2.15596 0.7609 -0.566862 
2.1653 0.737701 -0.553 2.16358 0.742508 -0.55609 2.16176 0.747599 -0.559363 
2.15979 0.753129 -0.562918 2.157 0.760938 -0.567938 2.1576 0.759264 -0.566862 
2.16028 0.761037 -0.571312 2.16522 0.761186 -0.576403 2.17093 0.761359 -0.582287 
2.17758 0.76156 -0.589143 2.18538 0.761795 -0.597175 2.19455 0.762072 -0.606626 
2.20538 0.762399 -0.617779 2.21818 0.762786 -0.630969 2.23335 0.763244 -0.646595 
2.24127 0.739701 -0.630969 2.23455 0.76328 -0.64783 2.23504 0.761553 -0.646595 
2.25149 0.763636 -0.665124 2.27303 0.764089 -0.687115 2.2986 0.764627 -0.713228 
2.32898 0.765266 -0.744248 2.3436 0.765573 -0.759173 2.34668 0.747572 -0.744248 
2.36536 0.765751 -0.781109 2.40881 0.766105 -0.824918 2.46047 0.766526 -0.876993 
[...]
POINT_DATA 616
FIELD FieldData 5
pressure 1 616 float
0.110507 0.110774 0.110544 0.110572 0.110553 0.110504 0.110341 0.110133 0.109664 
0.109069 0.108782 0.109861 0.107919 0.107388 0.108214 0.110886 0.112683 0.113924 
0.116717 0.125401 0.130938 0.133928 0.134387 0.141765 0.14267 0.141493 0.141389 
0.139557 0.149015 0.152904 0.16127 0.111731 0.11196 0.111851 0.111997 0.111878 
0.111697 0.111437 0.111177 0.110702 0.110198 0.110084 0.108947 0.108192 0.108645 
0.110624 0.111394 0.112133 0.115893 0.123431 0.12823 0.130853 0.130955 0.129326 
0.13919 0.139834 0.138692 0.139063 0.147693 0.152175 0.15963 0.112914 0.113123 
0.112945 0.113044 0.112958 0.112802 0.112632 0.11239 0.112048 0.111925 0.113307 
0.111406 0.110405 0.109498 0.109247 0.110115 0.1101 0.110295 0.110582 0.113639 
0.119378 0.123271 0.125381 0.126403 0.134593 0.135476 0.134577 0.136326 0.145948 
0.151471 0.157893 0.114501 0.114677 0.114549 0.114598 0.11451 0.114448 0.114447 
0.114468 0.114481 0.11621 0.114407 0.113946 0.113401 0.112555 0.112165 0.112204 
0.11153 0.111475 0.113687 0.117626 0.12014 0.121546 0.123908 0.131082 0.131773 
0.131006 0.134326 0.144564 0.151011 0.156067 0.116545 0.116678 0.11659 0.11663 
0.116665 0.116733 0.116846 0.116899 0.118301 0.116895 0.116807 0.116467 0.116142 
0.115624 0.115363 0.114796 0.114393 0.114076 0.114695 0.116863 0.117751 0.118403 
0.121778 0.127554 0.128086 0.127612 0.132701 0.143383 0.150902 0.154306 0.118942 
0.119062 0.119022 0.119121 0.119179 0.119228 0.121688 0.119259 0.120074 0.119297 
0.119345 0.119388 0.119288 0.119191 0.118904 0.118641 0.117744 0.117684 0.118091 
0.117082 0.11699 0.117628 0.116925 0.11706 0.117334 0.121063 0.125214 0.125051 
0.124862 0.131981 0.142847 0.151361 0.152754 0.152028 0.121938 0.122006 0.122021 
0.122076 0.124267 0.122117 0.123046 0.122147 0.122234 0.122314 0.122381 0.122389 
0.122343 0.122201 0.121932 0.121489 0.12102 0.123527 0.120676 0.120143 0.119772 
0.119396 0.11779 0.117887 0.121653 0.124057 0.12285 0.122839 0.122879 0.132171 
0.143246 0.152006 0.125114 0.125134 0.126554 0.125129 0.12545 0.125167 0.125248 
0.125289 0.125337 0.12535 0.125349 0.12531 0.125231 0.125067 0.124776 0.124302 
0.12761 0.124272 0.124058 0.123556 0.123366 0.122405 0.121428 0.121946 0.124308 
0.125037 0.123359 0.123721 0.13379 0.144891 0.152638 0.128635 0.128718 0.128797 
0.128821 0.128828 0.128808 0.128748 0.128666 0.128543 0.128387 0.128192 0.127919 
0.13206 0.127959 0.128133 0.128294 0.12818 0.128012 0.127231 0.12707 0.129029 
0.127931 0.128763 0.128443 0.12766 0.129148 0.137231 0.148215 0.154087 0.133542 
0.133699 0.13374 0.133808 0.133805 0.133788 0.133743 0.133675 0.133592 0.13348 
0.143148 0.133359 0.137655 0.133555 0.134238 0.134777 0.135402 0.135627 0.135447 
0.135271 0.145144 0.135534 0.135939 0.135762 0.134757 0.134668 0.14155 0.136766 
0.142886 0.153597 0.156891 0.142019 0.14227 0.14227 0.142513 0.142666 0.142858 
0.143054 0.143247 0.152695 0.143379 0.148408 0.143393 0.143742 0.144176 0.144723 
0.145374 0.145974 0.146327 0.146439 0.146381 0.146104 0.145315 0.144193 0.14352 
0.143591 0.145674 0.150543 0.161035 0.161044 0.161055 0.154031 0.154238 0.154289 
0.154655 0.154949 0.155319 0.161401 0.160152 0.158878 0.157447 0.155414 0.155861 
0.155553 0.155759 0.15599 0.156232 0.156471 0.156632 0.156687 0.156532 0.156042 
0.161086 0.156021 0.156449 0.154832 0.153613 0.152051 0.150485 0.150187 0.15338 
0.150796 0.153618 0.158731 0.165045 0.161754 0.161705 0.162469 0.161693 0.161717 
0.161743 0.161774 0.161821 0.16186 0.161903 0.16193 0.161977 0.162023 0.161977 
0.161679 0.161221 0.162784 0.161191 0.16032 0.159305 0.157919 0.15591 0.154445 
0.154523 0.155903 0.159542 0.164971 0.166847 0.166963 0.166762 0.1666 0.166565 
0.166445 0.166319 0.166178 0.166018 0.165823 0.165565 0.165198 0.164687 0.163983 
0.16468 0.163631 0.163978 0.163156 0.162291 0.161238 0.159975 0.15851 0.157058 
0.156954 0.157179 0.157749 0.159354 0.162988 0.166862 0.167691 0.167483 0.167386 
0.167177 0.166975 0.166743 0.166472 0.166148 0.165748 0.165265 0.16624 0.166058 
0.165836 0.165574 0.165207 0.165247 0.164652 0.163952 0.163151 0.162232 0.161171 
0.159987 0.158778 0.158584 0.15887 0.158987 0.160224 0.16244 0.166069 0.166907 
0.167 0.167138 0.166953 0.166842 0.166646 0.166456 0.166183 0.166169 0.166217 
0.166207 0.166243 0.166226 0.166238 0.16592 0.165545 0.16513 0.164641 0.164062 
0.163377 0.162576 0.161724 0.160848 0.160125 0.160788 0.160112 0.160129 0.160342 
0.161098 0.162619 0.165244 0.167044 0.16706 0.165626 0.165412 0.165233 0.164983 
0.164751 0.164488 0.164201 0.163874 0.163518 0.163111 0.162668 0.162176 0.161676 
0.161239 0.161668 0.161448 0.161121 0.161208 0.161185 0.161472 0.162084 0.163196 
0.165182 0.167078 0.166853 0.163885 0.163723 0.16354 0.163376 0.163195 0.163005 
0.162798 0.162573 0.162333 0.162092 0.161864 0.162196 0.162045 0.161906 0.161693 
0.161782 0.161695 0.161781 0.16197 0.162324 0.162934 0.163934 0.165541 0.166839 
0.166702 0.16304 0.162934 0.162778 0.162687 0.162568 0.162459 0.162339 0.163154 
0.163032 0.162854 0.16275 0.162613 0.162485 0.162319 0.162344 0.162316 0.162333 
0.162392 0.162499 0.162684 0.162979 0.163445 0.164138 0.165149 0.166493 0.167 
0.16682 0.166805 0.163792 0.163814 0.163781 0.163837 0.163868 0.16393 0.164 
0.164108 0.164244 0.164443 0.164725 0.165105 0.165624 0.16631 0.16719 0.168602 
0.168164 0.167751 0.167369 0.167407 0.166757 0.166818 0.166846 0.166944 0.167027 
0.167145 0.167278 0.167454 0.167674 0.167952 0.168317 0.170775 0.170566 0.170347 
0.170109 0.16985 0.169571 0.169261 0.168689 0.168943 0.170625 0.170717 0.170808 
0.171238 0.171091 0.17087 0.170936 
velocity_u 1 616 float
0.681594 0.873042 0.98213 1.03332 1.05653 1.06625 1.06999 1.07052 1.07076 
1.07154 1.07187 1.07339 1.07287 1.0729 1.07262 1.07083 1.06757 1.06605 
1.06303 1.05357 1.04796 1.04436 1.04377 1.03524 1.03508 1.03542 1.03545 
1.03767 1.02645 1.02277 1.0146 0.675651 0.86739 0.982811 1.03566 1.05857 
1.06768 1.07129 1.07235 1.07309 1.07384 1.07402 1.07566 1.07591 1.07641 
1.0748 1.07225 1.07107 1.06646 1.05809 1.05244 1.04884 1.0487 1.04987 
1.03877 1.03798 1.0387 1.03828 1.02821 1.02375 1.01642 0.671409 0.863182 
0.981712 1.03431 1.0566 1.06577 1.06896 1.06933 1.06934 1.06938 1.06783 
1.06988 1.0711 1.07229 1.07224 1.07301 1.07063 1.07032 1.06929 1.06607 
1.06048 1.05545 1.05266 1.05141 1.04203 1.04121 1.0418 1.03987 1.02977 
1.02458 1.01833 0.662429 0.854451 0.973752 1.02841 1.05207 1.06214 1.06584 
1.06646 1.06643 1.06448 1.06654 1.06749 1.06818 1.0688 1.06769 1.06891 
1.06799 1.06765 1.06656 1.06239 1.05869 1.05664 1.05373 1.04571 1.04502 
1.04418 1.04032 1.03137 1.02529 1.02037 0.651523 0.843644 0.9639 1.02177 
1.04856 1.05955 1.06303 1.06347 1.06074 1.06372 1.06413 1.06476 1.06538 
1.06619 1.06493 1.06485 1.06562 1.06602 1.06529 1.06268 1.06119 1.06008 
1.05573 1.04942 1.04887 1.04606 1.03908 1.03253 1.02565 1.02235 0.641399 
0.833324 0.955844 1.01718 1.04563 1.05635 1.04241 1.05755 1.05504 1.05918 
1.05984 1.06019 1.0609 1.06151 1.06237 1.06148 1.06145 1.06151 1.06097 
1.06211 1.06296 1.06155 1.06269 1.06237 1.06277 1.05694 1.05258 1.0525 
1.04985 1.03906 1.03345 1.02553 1.02417 1.02509 0.632219 0.823837 0.949378 
1.01308 0.9429 1.03299 1.01096 1.04181 1.05173 1.05457 1.05532 1.05552 
1.05606 1.05649 1.05699 1.05734 1.05748 1.05437 1.05746 1.05815 1.05955 
1.06142 1.06253 1.06223 1.05671 1.05435 1.05532 1.05459 1.05607 1.04108 
1.0325 1.02527 0.621023 0.812263 0.6145 0.847247 0.810737 0.940342 1.00611 
1.0353 1.04636 1.04982 1.05094 1.05113 1.05121 1.05168 1.05213 1.05316 
1.04878 1.0533 1.05358 1.0547 1.05541 1.06162 1.06118 1.05791 1.05429 
1.0539 1.05588 1.05535 1.04155 1.03084 1.02485 0.605472 0.795517 0.924745 
0.993382 1.02645 1.04081 1.04584 1.04723 1.04774 1.04761 1.04773 1.04838 
1.04469 1.04837 1.04865 1.05009 1.05042 1.05066 1.05998 1.05988 1.05745 
1.05297 1.04925 1.05089 1.05224 1.05002 1.03929 1.0277 1.02234 0.584487 
0.772715 0.902518 0.975336 1.01454 1.03382 1.04108 1.04297 1.04349 1.04347 
1.03543 1.04361 1.04014 1.0434 1.04317 1.0427 1.04439 1.04366 1.04292 
1.0457 1.03284 1.04713 1.04425 1.04228 1.04282 1.04337 1.03591 1.04166 
1.03419 1.02248 1.01932 0.558556 0.743849 0.874875 0.952448 0.998119 1.02253 
1.03239 1.0349 1.02118 1.03522 1.0294 1.03521 1.03494 1.03441 1.0341 
1.03301 1.03314 1.03193 1.03152 1.03152 1.0318 1.03343 1.03355 1.0339 
1.03378 1.03145 1.02628 1.01512 1.01511 1.0151 0.52911 0.710286 0.842473 
0.924324 0.97576 1.0051 0.689903 0.824251 0.911291 0.969217 1.00811 1.00403 
1.01777 1.02144 1.022 1.02237 1.02247 1.02226 1.02213 1.02201 1.02169 
1.01569 1.02171 1.02121 1.02255 1.02412 1.0262 1.02796 1.02825 1.02346 
1.02761 1.02372 1.01863 1.01173 0.510362 0.644976 0.50853 0.689069 0.819109 
0.901425 0.956296 0.990558 1.00747 1.01337 1.0148 1.01511 1.0151 1.01495 
1.01521 1.01549 1.01319 1.01551 1.01607 1.01737 1.01961 1.02113 1.02196 
1.02183 1.02075 1.01765 1.01218 1.01075 1.01054 0.498034 0.674879 0.801045 
0.880987 0.937727 0.977041 0.999148 1.00738 1.00938 1.01002 1.0105 1.01134 
1.01177 1.01174 1.01175 1.01229 1.01365 1.01567 1.01763 1.01899 1.0201 
1.0202 1.01993 1.0193 1.0176 1.01443 1.01045 0.492473 0.668497 0.78859 
0.864313 0.921109 0.964117 0.992312 1.00549 1.00964 1.01146 0.960899 0.991261 
1.0061 1.01023 1.01155 1.01152 1.01243 1.01327 1.0141 1.01477 1.01576 
1.01667 1.01781 1.01805 1.01799 1.01776 1.0167 1.01466 1.01101 1.01029 
1.01007 0.498624 0.6756 0.792184 0.864099 0.918342 0.49915 0.676118 0.791172 
0.862574 0.960055 0.917279 0.960889 0.991033 1.00679 1.0122 1.01323 1.0139 
1.01459 1.01536 1.01637 1.01735 1.01816 1.01685 1.01817 1.01815 1.01753 
1.01621 1.01392 1.01105 1.00964 1.01016 0.499599 0.676853 0.790417 0.859791 
0.912357 0.954787 0.986874 1.00592 1.01334 1.01399 1.01453 1.01505 1.01553 
1.01601 1.01537 1.01571 1.01617 1.01603 1.01619 1.01608 1.0154 1.01402 
1.01223 1.01051 1.01075 0.496983 0.673945 0.784607 0.851257 0.901867 0.943807 
0.977846 1.00149 1.01282 1.01441 1.01505 0.996451 1.01148 1.01516 1.01532 
1.0153 1.01533 1.01532 1.01515 1.01477 1.01408 1.01301 1.01169 1.01068 
1.01064 0.492629 0.669128 0.778164 0.843315 0.892756 0.934255 0.969196 0.489732 
0.666368 0.775624 0.840959 0.890809 0.93304 0.973732 0.969003 0.995366 1.01001 
1.01495 1.01503 1.01498 1.01477 1.01438 1.01366 1.01246 1.01087 1.01085 
1.01056 1.01063 0.486963 0.662488 0.770793 0.83479 0.883098 0.923731 0.95866 
0.986857 1.00471 1.01166 1.01297 1.01286 1.01238 1.01169 1.01081 1.00906 
1.00964 1.01014 1.01062 1.01058 0.478578 0.652416 0.759808 0.823057 0.87086 
0.911214 0.946377 0.975986 0.997145 1.00679 1.00889 0.809024 0.857644 0.899229 
0.936123 0.968165 0.992543 1.00486 1.00886 1.0082 0.468323 0.640068 0.746073 
0.466922 0.639038 0.776383 0.74567 
velocity_v 1 616 float
-0.100567 -0.128845 -0.118414 -0.104798 -0.100009 -0.100127 -0.102038 -0.104674 -0.105564 
-0.10762 -0.107761 -0.110066 -0.107234 -0.107057 -0.10699 -0.102407 -0.101831 -0.100544 
-0.0989629 -0.0954783 -0.0915512 -0.0895444 -0.0894481 -0.0860156 -0.0853865 -0.090543 -0.0906228 
-0.0934744 -0.0710926 -0.0525005 -0.0328642 -0.0969917 -0.124501 -0.11913 -0.108489 -0.10396 
-0.104099 -0.106321 -0.108688 -0.109389 -0.110649 -0.110733 -0.110219 -0.10848 -0.108731 
-0.104222 -0.104696 -0.103818 -0.101516 -0.0984163 -0.0948294 -0.0933905 -0.0933739 -0.09594 
-0.0891436 -0.0883528 -0.0944194 -0.0940167 -0.0721136 -0.0526808 -0.0351715 -0.0961824 -0.123349 
-0.123832 -0.116284 -0.110235 -0.108652 -0.109727 -0.11151 -0.112115 -0.111968 -0.110498 
-0.111426 -0.112144 -0.10952 -0.111342 -0.108677 -0.109464 -0.109008 -0.108095 -0.107618 
-0.106764 -0.10312 -0.10205 -0.101807 -0.0961772 -0.0940467 -0.0995086 -0.0976785 -0.0735477 
-0.0525663 -0.0374752 -0.0916911 -0.117884 -0.124549 -0.117835 -0.110677 -0.108204 -0.10858 
-0.109015 -0.108985 -0.107926 -0.108781 -0.107967 -0.108528 -0.106347 -0.107073 -0.106148 
-0.106585 -0.107133 -0.108774 -0.109296 -0.106706 -0.106384 -0.106116 -0.100355 -0.0977059 
-0.102225 -0.0988794 -0.073937 -0.0518548 -0.039943 -0.0860175 -0.110821 -0.121248 -0.116071 
-0.110209 -0.107798 -0.107499 -0.107394 -0.106769 -0.107325 -0.107026 -0.10677 -0.106476 
-0.105639 -0.105093 -0.103728 -0.103339 -0.104871 -0.109125 -0.110631 -0.109698 -0.109964 
-0.110135 -0.10485 -0.101278 -0.10374 -0.0984363 -0.0736832 -0.0503897 -0.0423544 -0.0812116 
-0.104529 -0.117378 -0.114456 -0.110385 -0.107825 -0.109705 -0.107079 -0.107367 -0.106215 
-0.105231 -0.104438 -0.103458 -0.102663 -0.102832 -0.102702 -0.101263 -0.101109 -0.1009 
-0.101982 -0.106435 -0.109319 -0.110002 -0.11036 -0.108958 -0.111007 -0.106863 -0.103126 
-0.103733 -0.0957246 -0.071858 -0.0478967 -0.0446125 -0.0455811 -0.0767823 -0.0988197 -0.113943 
-0.113178 -0.11301 -0.110624 -0.113132 -0.109622 -0.106389 -0.103659 -0.101856 -0.100922 
-0.0998095 -0.0994922 -0.10044 -0.100402 -0.0998779 -0.0983276 -0.0996678 -0.0995313 -0.103296 
-0.106443 -0.108313 -0.108458 -0.109567 -0.106796 -0.103966 -0.103702 -0.102053 -0.0916888 
-0.0682047 -0.0451261 -0.0734918 -0.0947035 -0.0719639 -0.0995441 -0.0943069 -0.112863 -0.113424 
-0.108318 -0.103582 -0.100468 -0.098689 -0.0979891 -0.0975527 -0.0978417 -0.0983189 -0.0978164 
-0.0952837 -0.0976893 -0.0966387 -0.0967779 -0.098801 -0.100964 -0.102406 -0.103139 -0.104133 
-0.102481 -0.100958 -0.100475 -0.0851747 -0.0621338 -0.0435486 -0.0703734 -0.0914121 -0.111596 
-0.112966 -0.106247 -0.100197 -0.0972294 -0.0959658 -0.0958309 -0.095624 -0.0954645 -0.0950067 
-0.0901406 -0.094896 -0.0930003 -0.0915257 -0.0907715 -0.0913557 -0.092447 -0.0927743 -0.0887504 
-0.0939865 -0.0945568 -0.0934631 -0.0924972 -0.0907624 -0.07619 -0.0532735 -0.0403481 -0.0636348 
-0.0825927 -0.104701 -0.107627 -0.100876 -0.0941556 -0.0910741 -0.0899797 -0.0897705 -0.0892715 
-0.072769 -0.0886085 -0.0816369 -0.0880454 -0.0856204 -0.0825936 -0.0802486 -0.0781224 -0.0769429 
-0.0766564 -0.0590646 -0.0773294 -0.079188 -0.0783244 -0.0775821 -0.0771094 -0.0630344 -0.0759403 
-0.0636051 -0.0414095 -0.0346867 -0.0457042 -0.05861 -0.0838813 -0.091049 -0.0869746 -0.0806623 
-0.0763559 -0.0740776 -0.061641 -0.0724103 -0.0657846 -0.0723544 -0.0710347 -0.0690291 -0.0667368 
-0.0645329 -0.0624706 -0.0593656 -0.0569405 -0.05706 -0.0583799 -0.0611799 -0.0603448 -0.0590804 
-0.0593491 -0.0582425 -0.0478047 -0.0263792 -0.0263609 -0.0263411 -0.0201931 -0.0250463 -0.0531445 
-0.0667548 -0.0676054 -0.0626709 -0.00410924 -0.0343116 -0.0548796 -0.0620224 -0.0613216 -0.0615931 
-0.0576806 -0.055079 -0.053299 -0.0517193 -0.0501122 -0.0484376 -0.0469314 -0.0447056 -0.0415406 
-0.0370701 -0.0414011 -0.0409384 -0.042556 -0.0437121 -0.0458095 -0.044774 -0.0446397 -0.0392672 
-0.0454764 -0.0409464 -0.0310059 -0.0183444 -0.00332903 -0.00335043 -0.00282692 -0.00342096 -0.0297627 
-0.0470948 -0.0526678 -0.0502795 -0.045657 -0.0427566 -0.0411293 -0.040044 -0.0391714 -0.038286 
-0.0375046 -0.0369315 -0.0366482 -0.0369442 -0.0373085 -0.0383607 -0.0386778 -0.0392934 -0.0380264 
-0.037924 -0.0367151 -0.0298258 -0.0183251 -0.0142451 -0.0139543 -0.00238925 -0.00280585 -0.0236461 
-0.0392547 -0.0465857 -0.0463231 -0.0427151 -0.040017 -0.0387524 -0.0380155 -0.0375214 -0.0371345 
-0.0374914 -0.0368702 -0.0371084 -0.0367979 -0.036607 -0.036265 -0.0362903 -0.0360017 -0.0357009 
-0.0355869 -0.0356169 -0.0341488 -0.0298015 -0.0220695 -0.0137519 -0.00648803 -0.00854653 -0.0234232 
-0.0356048 -0.0428874 -0.0444145 -0.0418871 -0.0392523 -0.038182 -0.0379278 -0.0433274 -0.0418886 
-0.0392785 -0.0381323 -0.0379204 -0.037927 -0.0378905 -0.0378673 -0.0374499 -0.0369669 -0.0364229 
-0.0360906 -0.0356542 -0.0356136 -0.0356234 -0.0347752 -0.0311763 -0.0250405 -0.0161766 -0.0139281 
-0.0143027 -0.0116232 -0.0156562 -0.0261022 -0.0348049 -0.0408571 -0.0147951 -0.019182 -0.027551 
-0.0349902 -0.0432792 -0.0407253 -0.0433258 -0.0419911 -0.0395049 -0.0383226 -0.0382291 -0.0381972 
-0.0380859 -0.0378219 -0.0374602 -0.036986 -0.0365671 -0.0369334 -0.0365544 -0.0365549 -0.0347813 
-0.0316231 -0.0263548 -0.0193248 -0.0150126 -0.0154955 -0.0161521 -0.0216755 -0.0291872 -0.0352281 
-0.0397991 -0.0421784 -0.0417353 -0.0396212 -0.0381586 -0.0378725 -0.0379076 -0.037932 -0.0379278 
-0.0376633 -0.0364266 -0.0368006 -0.0375057 -0.0372309 -0.0363996 -0.0341648 -0.0308 -0.0261335 
-0.0201761 -0.0157831 -0.0165988 -0.0177109 -0.0238561 -0.0300215 -0.0345957 -0.0382287 -0.0404512 
-0.0406355 -0.0389491 -0.037228 -0.0365219 -0.0364135 -0.0371286 -0.0358006 -0.0353479 -0.0363928 
-0.0357428 -0.0362902 -0.0351267 -0.0332998 -0.0309195 -0.0280911 -0.0244657 -0.0199194 -0.0169776 
-0.0175883 -0.0169947 -0.0229517 -0.0283031 -0.0320408 -0.0350232 -0.0371336 -0.0378939 -0.0148867 
-0.0204947 -0.0260008 -0.0300166 -0.0334496 -0.0362185 -0.0377167 -0.0377554 -0.0364534 -0.0342711 
-0.0326352 -0.031502 -0.0302311 -0.0285881 -0.0265782 -0.0242889 -0.0217035 -0.018745 -0.0181316 
-0.0180857 -0.0181498 -0.0121942 -0.0160184 -0.0204483 -0.0234439 -0.025815 -0.0276481 -0.0286495 
-0.028359 -0.0269859 -0.025533 -0.0243322 -0.0230566 -0.0215196 -0.0199074 -0.0181922 -0.0164174 
-0.0168853 -0.0173925 -0.0178814 -0.0178198 -0.00403887 -0.00499677 -0.00914486 -0.0122761 -0.0148567 
-0.0170286 -0.0186559 -0.0194059 -0.0190198 -0.0180316 -0.0170411 -0.0026 -0.00606158 -0.00927025 
-0.012122 -0.0143175 -0.0154142 -0.0156889 -0.016326 -0.0159445 0.00297757 0.00447429 0.000894076 
0.00389368 0.00523746 -0.000641133 0.00118212 
velocity_w 1 616 float
0.00144691 -0.00146013 -0.00502511 -0.00396606 -0.00184784 0.00103535 0.00534005 0.010534 0.0161129 
0.0214218 0.0234712 0.023667 0.0280495 0.0341378 0.0339145 0.0340307 0.0350011 0.0340055 
0.0293887 0.0136504 0.00437935 -0.00473419 -0.00665416 -0.0238766 -0.0318217 -0.0472553 -0.0481448 
-0.0447097 -0.0609732 -0.0538732 -0.0485237 0.000773841 -0.000806905 -0.00233253 -0.000979482 0.00236478 
0.00595695 0.0103038 0.0148671 0.0195708 0.0237977 0.0243868 0.0300498 0.0358814 0.0360781 
0.0365398 0.0378313 0.0378111 0.0327984 0.0185638 0.00995207 0.000357061 -0.000111309 0.00198648 
-0.0201907 -0.0281146 -0.042841 -0.0437924 -0.057808 -0.051229 -0.0469461 0.000610349 -0.000633067 
-0.00130053 0.000826649 0.00320396 0.00527113 0.00758291 0.0101221 0.0135681 0.0150041 0.0101716 
0.0182385 0.0235252 0.0299322 0.032016 0.035637 0.0389051 0.0387422 0.0381254 0.0331778 
0.023186 0.0154858 0.0073746 0.00463126 -0.0154873 -0.0242669 -0.0365169 -0.0407857 -0.0540858 
-0.0476488 -0.0442012 0.000730838 -0.000755333 -0.00270783 -0.00219703 -0.00114888 0.000545039 0.00257568 
0.00481183 0.00610742 0.00372665 0.00712738 0.011184 0.0159225 0.0219483 0.028069 0.0324594 
0.0357746 0.0363216 0.0336636 0.0273216 0.0213813 0.0154323 0.00884731 -0.0104488 -0.0199487 
-0.0297257 -0.0374001 -0.0497803 -0.0431069 -0.0404157 0.00066268 -0.000698087 -0.00281328 -0.00320507 
-0.0024866 -0.000802742 0.00113094 0.00260849 0.00185831 0.00343319 0.0063921 0.0103896 0.0146638 
0.0194503 0.0251317 0.0309047 0.0333943 0.0352816 0.0320491 0.0292627 0.0253162 0.0218355 
0.0119617 -0.00597041 -0.0152752 -0.0225886 -0.0337571 -0.0448923 -0.0376733 -0.0358874 0.000519263 
-0.000553116 -0.00201802 -0.00219264 -0.00141306 0.000329993 0.000478714 0.00123558 0.00079023 0.00261731 
0.00506051 0.0074641 0.0100956 0.0124151 0.0156444 0.0201896 0.0263039 0.0266424 0.0257586 
0.0300618 0.0291318 0.0285577 0.0260534 0.0248152 0.0240945 0.013187 -0.002884 -0.0112022 
-0.0157244 -0.0298529 -0.0395419 -0.0317923 -0.0310782 -0.0283457 0.000244871 -0.000263258 -0.000615467 
-0.000133333 -0.000218032 0.000571598 0.000111329 0.000906326 0.0023799 0.00395458 0.00548937 0.00712242 
0.00903582 0.0114154 0.0144467 0.0176477 0.019565 0.0171243 0.0213585 0.0236062 0.0248729 
0.0248922 0.0232499 0.022745 0.0118422 -0.00181306 -0.00893793 -0.0107313 -0.0092377 -0.0262219 
-0.0342094 -0.0267827 0.000104846 -0.000119558 5.00609e-05 -9.02679e-05 -0.000107539 -2.29836e-05 0.000781952 
0.00172574 0.00264199 0.00362292 0.00487522 0.00643418 0.00838182 0.0109236 0.0138968 0.0164377 