# vtk DataFile Version 5.1
vtk output
ASCII
DATASET POLYDATA
POINTS 299 float
1.44059 1.5 -0.59059 1.44059 1.50997 -0.600565 1.44059 1.52981 -0.6204 
1.44059 1.55 -0.64059 1.44059 1.55347 -0.644057 1.44059 1.5817 -0.672287 
1.44059 1.60304 -0.69363 1.44059 1.6154 -0.705987 1.44059 1.65564 -0.746226 
1.44059 1.66236 -0.75295 1.44059 1.70369 -0.794282 1.44059 1.73155 -0.82214 
1.44059 1.76109 -0.851682 1.44059 1.81483 -0.90542 1.44059 1.82966 -0.920246 
1.44059 1.91156 -1.00215 1.44059 1.91728 -1.00787 1.44059 2.00941 -1.1 
1.44342 1.50093 -0.59435 1.44342 1.50749 -0.600911 1.44341 1.52732 -0.620735 
1.44341 1.55093 -0.64434 1.44341 1.55097 -0.644378 1.44344 1.55094 -0.644382 
1.4434 1.57919 -0.672592 1.4434 1.60397 -0.69737 1.4434 1.61287 -0.706271 
1.44339 1.65309 -0.746485 1.44339 1.66328 -0.75667 1.44338 1.70113 -0.794508 
1.44338 1.73246 -0.825835 1.44337 1.75849 -0.851868 1.44336 1.81571 -0.90907 
1.44336 1.82702 -0.920382 1.44334 1.90889 -1.00223 1.44334 1.91811 -1.01145 
1.44332 2.00668 -1.1 1.44701 1.50211 -0.59912 1.44701 1.50434 -0.601349 
1.44886 1.50272 -0.601574 1.447 1.52416 -0.62116 1.44699 1.5478 -0.644787 
1.44699 1.55211 -0.6491 1.44698 1.576 -0.67298 1.44697 1.60515 -0.702119 
1.44697 1.60967 -0.706633 1.45065 1.60636 -0.707006 1.44695 1.64987 -0.746813 
1.44694 1.66445 -0.76139 1.44693 1.69787 -0.794797 1.44692 1.73361 -0.830526 
1.44691 1.75519 -0.852104 1.44688 1.81683 -0.91371 1.44688 1.82368 -0.920556 
1.44685 1.90547 -1.00232 1.44684 1.91917 -1.01601 1.4468 2.0032 -1.1 
1.45153 1.5036 -0.605132 1.45153 1.52017 -0.621696 1.45151 1.54379 -0.645303 
1.4515 1.5536 -0.655103 1.4515 1.57197 -0.673469 1.45147 1.60562 -0.707089 
1.45147 1.60663 -0.7081 1.45145 1.64578 -0.747228 1.45143 1.66592 -0.767354 
1.45142 1.69374 -0.79516 1.45139 1.73506 -0.836447 1.45138 1.75103 -0.852404 
1.45134 1.81823 -0.91957 1.45134 1.81944 -0.920776 1.45229 1.81853 -0.920823 
1.45129 1.90116 -1.00244 1.45127 1.9205 -1.02177 1.45122 1.99878 -1.1 
1.45721 1.50547 -0.612675 1.4572 1.51517 -0.62237 1.45719 1.53876 -0.64595 
1.45717 1.55547 -0.66264 1.45716 1.56693 -0.674085 1.45714 1.60053 -0.707664 
1.45713 1.6085 -0.71563 1.4571 1.64065 -0.747751 1.45708 1.66777 -0.774846 
1.45706 1.68856 -0.795618 1.45702 1.73687 -0.84389 1.45701 1.74577 -0.852781 
1.45696 1.8141 -0.921053 1.45695 1.82 -0.926951 1.45689 1.89571 -1.0026 
1.45687 1.92218 -1.02905 1.45681 1.99319 -1.1 1.46429 1.50779 -0.62208 
1.46429 1.50892 -0.62321 1.46522 1.5081 -0.623321 1.46427 1.53249 -0.646759 
1.46424 1.5578 -0.672039 1.46424 1.56062 -0.674853 1.46655 1.55856 -0.675103 
1.46421 1.59417 -0.70838 1.46419 1.61082 -0.72501 1.46416 1.63424 -0.748404 
1.46413 1.67008 -0.784205 1.46412 1.68207 -0.796191 1.46406 1.73914 -0.8532 
1.46406 1.73919 -0.853254 1.4641 1.73915 -0.853257 1.46399 1.80741 -0.921401 
1.46397 1.8222 -0.936173 1.46391 1.88888 -1.00279 1.46388 1.92426 -1.03814 
1.46381 1.98619 -1.1 1.47304 1.51067 -0.63371 1.47302 1.52474 -0.647759 
1.47299 1.55281 -0.675803 1.47298 1.56067 -0.683652 1.47296 1.58631 -0.709269 
1.47293 1.61369 -0.736617 1.47291 1.6263 -0.749213 1.47286 1.67292 -0.79578 
1.48312 1.61704 -0.750158 1.47286 1.67404 -0.796901 1.47376 1.67321 -0.796974 
1.47279 1.73105 -0.85384 1.47278 1.74194 -0.864723 1.47271 1.79912 -0.921832 
1.47269 1.82491 -0.9476 1.47262 1.88041 -1.00303 1.47257 1.92684 -1.04942 
1.47252 1.97748 -1.1 1.48374 1.51419 -0.647929 1.48374 1.51524 -0.648982 
1.48461 1.51447 -0.649081 1.4837 1.54327 -0.676966 1.48368 1.56419 -0.697866 
1.48366 1.57669 -0.710355 1.49386 1.56753 -0.71139 1.48362 1.61658 -0.750204 
1.48362 1.6172 -0.75082 1.48357 1.6642 -0.79777 1.48355 1.6764 -0.809954 
1.4835 1.72106 -0.854558 1.48347 1.74536 -0.878831 1.48342 1.78894 -0.922362 
1.48338 1.82824 -0.96162 1.48333 1.86999 -1.00332 1.48326 1.93001 -1.06327 
1.48322 1.96678 -1.1 1.49665 1.51843 -0.66508 1.49663 1.53174 -0.678371 
1.50754 1.52201 -0.679556 1.4966 1.56506 -0.711668 1.4966 1.56843 -0.715032 
1.49656 1.60484 -0.751402 1.49654 1.62143 -0.767977 1.49651 1.65231 -0.798823 
1.49648 1.6806 -0.827085 1.49645 1.70898 -0.855429 1.49641 1.7495 -0.895912 
1.49638 1.77662 -0.923003 1.49632 1.83225 -0.978574 1.4963 1.85738 -1.00368 
1.49622 1.93382 -1.08004 1.4962 1.9538 -1.1 1.51166 1.93834 -1.1 
1.512 1.52348 -0.685482 1.51198 1.55125 -0.71323 1.51197 1.57348 -0.735446 
1.51195 1.59088 -0.752826 1.51192 1.62647 -0.788387 1.52603 1.5781 -0.754131 
1.51191 1.63817 -0.800076 1.51188 1.6856 -0.847478 1.5213 1.62954 -0.80084 
1.51187 1.69459 -0.856464 1.51183 1.75442 -0.916247 1.51903 1.68792 -0.856945 
1.51182 1.76195 -0.923768 1.51177 1.83702 -0.998789 1.51776 1.7563 -0.924062 
1.51176 1.84234 -1.0041 1.51592 1.8383 -1.00421 1.51169 1.93831 -1.1 
1.52991 1.52937 -0.70928 1.52991 1.53514 -0.715052 1.53461 1.53092 -0.71553 
1.5299 1.57459 -0.754489 1.5299 1.57937 -0.759271 1.52989 1.62165 -0.801538 
1.52988 1.63234 -0.812224 1.52987 1.6778 -0.857674 1.52987 1.69143 -0.871304 
1.52986 1.7448 -0.924661 1.52985 1.76015 -0.940004 1.52984 1.82476 -1.0046 
1.52983 1.84259 -1.02242 1.52981 1.92019 -1.1 1.55038 1.5361 -0.73648 
1.55039 1.556 -0.756387 1.5504 1.5861 -0.7865 1.56648 1.54139 -0.757878 
1.55041 1.6028 -0.803207 1.55042 1.63906 -0.839477 1.5638 1.5905 -0.804297 
1.55043 1.65863 -0.859057 1.55045 1.6981 -0.898542 1.56597 1.64414 -0.860102 
1.55046 1.72522 -0.925682 1.55048 1.76671 -0.967185 1.57175 1.70499 -0.926738 
1.55049 1.80468 -1.00517 1.55051 1.84895 -1.04946 1.55053 1.89947 -1.1 
1.57319 1.5436 -0.76679 1.57324 1.58182 -0.805066 1.57326 1.5936 -0.81686 
1.57332 1.63728 -0.860596 1.57333 1.64654 -0.86987 1.57349 1.77401 -0.9975 
1.5734 1.70342 -0.92682 1.5734 1.70552 -0.92892 1.5735 1.7823 -1.0058 
1.5736 1.85604 -1.07964 1.57993 1.77605 -1.00598 1.57363 1.87637 -1.1 
1.58917 1.86083 -1.1 1.59795 1.55174 -0.799692 1.59797 1.55911 -0.807078 
1.59806 1.60174 -0.849802 1.60387 1.55369 -0.807559 1.59809 1.61417 -0.862262 
1.59818 1.65465 -0.902838 1.60794 1.60498 -0.862925 1.59824 1.67981 -0.928051 
1.59832 1.71358 -0.961896 1.61792 1.6611 -0.929027 1.59841 1.75807 -1.00649 
1.59847 1.78194 -1.03041 1.59863 1.85137 -1.1 1.62404 1.56032 -0.834351 
1.62413 1.58988 -0.864013 1.62419 1.61031 -0.884504 1.64754 1.56804 -0.865587 
1.62455 1.72206 -0.996615 1.62434 1.655 -0.929345 1.62437 1.66321 -0.937577 
1.62459 1.73261 -1.0072 1.62478 1.79029 -1.06507 1.63272 1.72471 -1.00743 
1.62489 1.82511 -1.1 1.65128 1.79872 -1.1 1.65088 1.61907 -0.919957 
1.65069 1.56908 -0.869767 1.65093 1.62973 -0.930662 1.6511 1.67194 -0.973048 
1.65926 1.62182 -0.931075 1.65124 1.70669 -1.00794 1.65134 1.73074 -1.03208 
1.65162 1.79838 -1.1 1.67707 1.57775 -0.904827 1.67755 1.6806 -1.00815 
1.6772 1.60476 -0.931964 1.67731 1.62775 -0.955055 1.69828 1.58473 -0.933008 
1.67755 1.68111 -1.00866 1.67782 1.73932 -1.06715 1.67794 1.68073 -1.00867 
1.67798 1.77202 -1.1 1.70262 1.74738 -1.1 1.70264 1.63607 -0.988714 
1.7024 1.58608 -0.938475 1.70274 1.65661 -1.00935 1.7029 1.6889 -1.0418 
1.7185 1.64129 -1.00979 1.70319 1.74681 -1.1 1.72599 1.59384 -0.969822 
1.72648 1.69664 -1.07312 1.72618 1.63381 -1.01 1.72623 1.64383 -1.02006 
1.72662 1.72338 -1.1 1.74671 1.70329 -1.1 1.74737 1.60086 -0.998228 
1.74742 1.61316 -1.01058 1.74759 1.65086 -1.04844 1.75686 1.60399 -1.01084 
1.74781 1.70219 -1.1 1.76644 1.65707 -1.07352 1.76625 1.60708 -1.02333 
1.76654 1.68346 -1.1 1.78273 1.66244 -1.09517 1.78258 1.61245 -1.04503 
1.78275 1.66725 -1.1 1.78636 1.66364 -1.1 1.79643 1.61699 -1.06342 
1.7965 1.6535 -1.1 1.80797 1.62079 -1.07876 1.80799 1.64201 -1.1 
1.81747 1.62391 -1.09138 1.81747 1.63253 -1.1 
POLYGONS 515 1542
OFFSETS vtktypeint64
0 3 6 9 12 15 18 21 24 
27 30 33 36 39 42 45 48 51 
54 57 60 63 66 69 72 75 78 
81 84 87 90 93 96 99 102 105 
108 111 114 117 120 123 126 129 132 
135 138 141 144 147 150 153 156 159 
162 165 168 171 174 177 180 183 186 
189 192 195 198 201 204 207 210 213 
216 219 222 225 228 231 234 237 240 
243 246 249 252 255 258 261 264 267 
270 273 276 279 282 285 288 291 294 
297 300 303 306 309 312 315 318 321 
324 327 330 333 336 339 342 345 348 
351 354 357 360 363 366 369 372 375 
378 381 384 387 390 393 396 399 402 
405 408 411 414 417 420 423 426 429 
432 435 438 441 444 447 450 453 456 
459 462 465 468 471 474 477 480 483 
486 489 492 495 498 501 504 507 510 
513 516 519 522 525 528 531 534 537 
540 543 546 549 552 555 558 561 564 
567 570 573 576 579 582 585 588 591 
594 597 600 603 606 609 612 615 618 
621 624 627 630 633 636 639 642 645 
648 651 654 657 660 663 666 669 672 
675 678 681 684 687 690 693 696 699 
702 705 708 711 714 717 720 723 726 
729 732 735 738 741 744 747 750 753 
756 759 762 765 768 771 774 777 780 
783 786 789 792 795 798 801 804 807 
810 813 816 819 822 825 828 831 834 
837 840 843 846 849 852 855 858 861 
864 867 870 873 876 879 882 885 888 
891 894 897 900 903 906 909 912 915 
918 921 924 927 930 933 936 939 942 
945 948 951 954 957 960 963 966 969 
972 975 978 981 984 987 990 993 996 
999 1002 1005 1008 1011 1014 1017 1020 1023 
1026 1029 1032 1035 1038 1041 1044 1047 1050 
1053 1056 1059 1062 1065 1068 1071 1074 1077 
1080 1083 1086 1089 1092 1095 1098 1101 1104 
1107 1110 1113 1116 1119 1122 1125 1128 1131 
1134 1137 1140 1143 1146 1149 1152 1155 1158 
1161 1164 1167 1170 1173 1176 1179 1182 1185 
1188 1191 1194 1197 1200 1203 1206 1209 1212 
1215 1218 1221 1224 1227 1230 1233 1236 1239 
1242 1245 1248 1251 1254 1257 1260 1263 1266 
1269 1272 1275 1278 1281 1284 1287 1290 1293 
1296 1299 1302 1305 1308 1311 1314 1317 1320 
1323 1326 1329 1332 1335 1338 1341 1344 1347 
1350 1353 1356 1359 1362 1365 1368 1371 1374 
1377 1380 1383 1386 1389 1392 1395 1398 1401 
1404 1407 1410 1413 1416 1419 1422 1425 1428 
1431 1434 1437 1440 1443 1446 1449 1452 1455 
1458 1461 1464 1467 1470 1473 1476 1479 1482 
1485 1488 1491 1494 1497 1500 1503 1506 1509 
1512 1515 1518 1521 1524 1527 1530 1533 1536 
1539 1542 
CONNECTIVITY vtktypeint64
0 19 18 1 19 0 1 2 19 
19 2 20 3 22 21 4 22 3 
20 2 3 21 20 3 4 5 22 
22 5 24 6 26 25 7 26 6 
24 5 6 25 24 6 7 8 26 
26 8 27 9 29 28 10 29 9 
27 8 9 28 27 9 11 31 30 
12 31 11 29 10 11 30 29 11 
13 33 32 14 33 13 31 12 13 
32 31 13 14 15 33 33 15 34 
16 36 35 17 36 16 34 15 16 
35 34 16 18 38 37 19 38 18 
19 20 38 38 20 40 21 22 23 
21 23 41 21 41 20 20 41 40 
23 43 42 23 22 43 22 24 43 
41 23 42 25 45 44 26 45 25 
43 24 25 44 43 25 26 27 45 
45 27 47 28 49 48 29 49 28 
47 27 28 48 47 28 30 51 50 
31 51 30 49 29 30 50 49 30 
32 53 52 33 53 32 51 31 32 
52 51 32 33 34 53 53 34 54 
35 56 55 36 56 35 54 34 35 
55 54 35 37 38 39 39 58 57 
39 38 58 38 40 58 40 41 58 
58 41 59 42 61 60 43 61 42 
59 41 42 60 59 42 44 45 46 
44 46 62 44 62 43 43 62 61 
46 64 63 46 45 64 45 47 64 
62 46 63 48 66 65 49 66 48 
64 47 48 65 64 48 50 68 67 
51 68 50 66 49 50 67 66 50 
52 70 69 53 70 52 68 51 52 
69 68 52 53 54 70 70 54 72 
55 74 73 56 74 55 72 54 55 
73 72 55 57 76 75 58 76 57 
58 59 76 76 59 77 60 79 78 
61 79 60 77 59 60 78 77 60 
61 62 79 79 62 80 63 82 81 
64 82 63 80 62 63 81 80 63 
65 84 83 66 84 65 82 64 65 
83 82 65 67 86 85 68 86 67 
84 66 67 85 84 67 69 70 71 
69 71 87 69 87 68 68 87 86 
71 89 88 71 70 89 70 72 89 
87 71 88 73 91 90 74 91 73 
89 72 73 90 89 73 75 93 92 
76 93 75 76 77 93 93 77 95 
78 97 96 79 97 78 95 77 78 
96 95 78 79 80 97 97 80 99 
81 101 100 82 101 81 99 80 81 
100 99 81 83 103 102 84 103 83 
101 82 83 102 101 83 85 105 104 
86 105 85 103 84 85 104 103 85 
86 87 105 105 87 107 88 109 108 
89 109 88 107 87 88 108 107 88 
90 111 110 91 111 90 109 89 90 
110 109 90 92 93 94 94 113 112 
94 93 113 93 95 113 96 97 98 
96 98 114 96 114 95 95 114 113 
98 116 115 98 97 116 97 99 116 
114 98 115 100 118 117 101 118 100 
116 99 100 117 116 100 102 121 119 
103 121 102 118 101 102 119 118 102 
104 105 106 104 106 123 104 123 103 
103 123 121 106 125 124 106 105 125 
105 107 125 123 106 124 108 127 126 
109 127 108 125 107 108 126 125 108 
110 129 128 111 129 110 127 109 110 
128 127 110 112 131 130 113 131 112 
113 114 131 131 114 133 115 135 134 
116 135 115 133 114 115 134 133 115 
117 118 120 117 120 137 117 137 116 
116 137 135 119 121 122 119 122 139 
118 119 139 118 139 138 118 138 120 
137 120 138 122 141 140 122 121 141 
121 123 141 139 122 140 124 143 142 
125 143 124 141 123 124 142 141 124 
126 145 144 127 145 126 143 125 126 
144 143 126 128 147 146 129 147 128 
145 127 128 146 145 128 130 131 132 
132 149 148 132 131 149 131 133 149 
134 135 136 134 136 151 134 151 133 
133 151 149 136 153 152 136 135 153 
135 137 153 151 136 152 138 155 154 
139 155 138 153 137 138 154 153 138 
140 157 156 141 157 140 155 139 140 
156 155 140 142 159 158 143 159 142 
157 141 142 158 157 142 144 161 160 
145 161 144 159 143 144 160 159 144 
146 163 162 147 163 146 161 145 146 
162 161 146 148 149 150 150 166 165 
150 149 166 149 151 166 152 168 167 
153 168 152 166 151 152 167 166 152 
154 171 169 155 171 154 168 153 154 
169 168 154 156 174 172 157 174 156 
171 155 156 172 171 156 158 177 175 
159 177 158 174 157 158 175 174 158 
160 180 178 161 180 160 177 159 160 
178 177 160 162 163 164 162 164 182 
162 182 161 161 182 180 165 184 183 
166 184 165 167 168 170 167 170 186 
167 186 166 166 186 184 169 171 173 
169 173 188 168 169 188 168 188 187 
168 187 170 186 170 187 172 174 176 
172 176 190 171 172 190 171 190 189 
171 189 173 188 173 189 175 177 179 
175 179 192 174 175 192 174 192 191 
174 191 176 190 176 191 178 180 181 
178 181 194 177 178 194 177 194 193 
177 193 179 192 179 193 181 196 195 
181 180 196 180 182 196 194 181 195 
183 184 185 185 198 197 185 184 198 
184 186 198 187 201 199 188 201 187 
198 186 187 199 198 187 189 204 202 
190 204 189 201 188 189 202 201 189 
191 207 205 192 207 191 204 190 191 
205 204 191 193 210 208 194 210 193 
207 192 193 208 207 193 195 212 211 
196 212 195 210 194 195 211 210 195 
197 198 200 199 201 203 199 203 214 
198 199 214 198 214 213 198 213 200 
202 204 206 202 206 216 201 202 216 
201 216 215 201 215 203 214 203 215 
205 207 209 205 209 219 204 205 219 
204 219 217 204 217 206 216 206 217 
208 221 218 210 221 208 209 207 208 
209 208 220 220 208 218 219 209 220 
211 224 222 212 224 211 221 210 211 
222 221 211 213 227 226 214 227 213 
215 230 228 216 230 215 227 214 215 
228 227 215 217 233 231 219 233 217 
230 216 217 231 230 217 218 221 223 
236 218 223 236 234 218 234 220 218 
233 219 220 234 233 220 222 224 225 
222 225 238 221 222 238 221 238 237 
221 237 223 236 223 237 226 227 229 
228 230 232 228 232 240 227 228 240 
227 240 239 227 239 229 231 233 235 
231 235 244 230 231 244 230 244 241 
230 241 232 240 232 241 234 246 243 
236 246 234 235 233 234 235 234 245 
245 234 243 244 235 245 237 249 247 
238 249 237 246 236 237 247 246 237 
239 240 242 241 253 251 244 253 241 
242 240 241 242 241 252 252 241 251 
243 246 248 256 243 248 256 254 243 
254 245 243 253 244 245 254 253 245 
247 249 250 247 250 258 246 247 258 
246 258 257 246 257 248 256 248 257 
251 253 255 261 251 255 261 259 251 
259 252 251 254 264 260 256 264 254 
255 253 254 255 254 262 262 254 260 
261 255 262 257 267 265 258 267 257 
264 256 257 265 264 257 259 261 263 
260 264 266 271 260 266 271 269 260 
269 262 260 263 261 262 263 262 270 
270 262 269 265 267 268 265 268 274 
264 265 274 264 274 272 264 272 266 
271 266 272 269 271 273 277 269 273 
277 275 269 275 270 269 272 279 276 
274 279 272 273 271 272 273 272 278 
278 272 276 277 273 278 275 282 281 
277 282 275 276 279 280 285 276 280 
285 283 276 283 278 276 282 277 278 
283 282 278 281 282 284 283 288 286 
285 288 283 284 282 283 284 283 287 
287 283 286 286 291 289 288 291 286 
287 286 290 286 289 290 289 291 292 
294 289 292 294 293 289 293 290 289 
293 296 295 294 296 293 295 298 297 
296 298 295 
POINT_DATA 299
FIELD FieldData 5
pressure 1 299 float
0.178573 0.178573 0.178573 0.178573 0.178573 0.178573 0.178573 0.178573 0.178573 
0.178573 0.178573 0.178573 0.178573 0.178573 0.178573 0.178573 0.178573 0.178573 
0.178573 0.178573 0.178573 0.178573 0.178573 0.178573 0.178573 0.178573 0.178573 
0.178573 0.178573 0.178573 0.178573 0.178573 0.178573 0.178573 0.178573 0.178573 
0.178573 0.178573 0.178573 0.178573 0.178573 0.178573 0.178573 0.178573 0.178573 
0.178573 0.178573 0.178573 0.178573 0.178573 0.178573 0.178573 0.178573 0.178573 
0.178573 0.178573 0.178573 0.178573 0.178573 0.178573 0.178573 0.178573 0.178573 
0.178573 0.178573 0.178573 0.178573 0.178573 0.178573 0.178573 0.178573 0.178573 
0.178573 0.178573 0.178573 0.178573 0.178573 0.178573 0.178573 0.178573 0.178573 
0.178573 0.178573 0.178573 0.178573 0.178573 0.178573 0.178573 0.178573 0.178573 
0.178573 0.178573 0.178573 0.178573 0.178573 0.178573 0.178573 0.178573 0.178573 
0.178573 0.178573 0.178573 0.178573 0.178573 0.178573 0.178573 0.178573 0.178573 
0.178573 0.178573 0.178573 0.178573 0.178573 0.178573 0.178573 0.178573 0.178573 
0.178573 0.178573 0.178573 0.178573 0.178573 0.178573 0.178573 0.178573 0.178573 
0.178573 0.178573 0.178573 0.178573 0.178573 0.178573 0.178573 0.178573 0.178573 
0.178573 0.178573 0.178573 0.178573 0.178573 0.178573 0.178573 0.178573 0.178573 
0.178573 0.178573 0.178573 0.178573 0.178573 0.178573 0.178573 0.178573 0.178573 
0.178573 0.178573 0.178573 0.178573 0.178573 0.178573 0.178573 0.178573 0.178573 
0.178573 0.178573 0.178573 0.178573 0.178573 0.178573 0.178573 0.178573 0.178573 
0.178573 0.178573 0.178573 0.178573 0.178573 0.178573 0.178573 0.178573 0.178573 
0.178573 0.178573 0.178573 0.178573 0.178573 0.178573 0.178573 0.178573 0.178573 
0.178573 0.178573 0.178573 0.178573 0.178573 0.178573 0.178573 0.178573 0.178573 
0.178573 0.178573 0.178573 0.178573 0.178573 0.178573 0.178573 0.178573 0.178573 
0.178573 0.178573 0.178573 0.178573 0.178573 0.178573 0.178573 0.178573 0.178573 
0.178573 0.178573 0.178573 0.178573 0.178573 0.178573 0.178573 0.178573 0.178573 
0.178573 0.178573 0.178573 0.178573 0.178573 0.178573 0.178573 0.178573 0.178573 
0.178573 0.178573 0.178573 0.178573 0.178573 0.178573 0.178573 0.178573 0.178573 
0.178573 0.178573 0.178573 0.178573 0.178573 0.178573 0.178573 0.178573 0.178573 
0.178573 0.178573 0.178573 0.178573 0.178573 0.178573 0.178573 0.178573 0.178573 
0.178573 0.178573 0.178573 0.178573 0.178573 0.178573 0.178573 0.178573 0.178573 
0.178573 0.178573 0.178573 0.178573 0.178573 0.178573 0.178573 0.178573 0.178573 
0.178573 0.178573 0.178573 0.178573 0.178573 0.178573 0.178573 0.178573 0.178573 
0.178573 0.178573 0.178573 0.178573 0.178573 0.178573 0.178573 0.178573 0.178573 
0.178573 0.178573 
velocity_u 1 299 float
1 1 1 1 1 1 1 1 1 
1 1 1 1 1 1 1 1 1 
1 1 1 1 1 1 1 1 1 
1 1 1 1 1 1 1 1 1 
1 1 1 1 1 1 1 1 1 
1 1 1 1 1 1 1 1 1 
1 1 1 1 1 1 1 1 1 
1 1 1 1 1 1 1 1 1 
1 1 1 1 1 1 1 1 1 
1 1 1 1 1 1 1 1 1 
1 1 1 1 1 1 1 1 1 
1 1 1 1 1 1 1 1 1 
1 1 1 1 1 1 1 1 1 
1 1 1 1 1 1 1 1 1 
1 1 1 1 1 1 1 1 1 
1 1 1 1 1 1 1 1 1 
1 1 1 1 1 1 1 1 1 
1 1 1 1 1 1 1 1 1 
1 1 1 1 1 1 1 1 1 
1 1 1 1 1 1 1 1 1 
1 1 1 1 1 1 1 1 1 
1 1 1 1 1 1 1 1 1 
1 1 1 1 1 1 1 1 1 
1 1 1 1 1 1 1 1 1 
1 1 1 1 1 1 1 1 1 
1 1 1 1 1 1 1 1 1 
1 1 1 1 1 1 1 1 1 
1 1 1 1 1 1 1 1 1 
1 1 1 1 1 1 1 1 1 
1 1 1 1 1 1 1 1 1 
1 1 1 1 1 1 1 1 1 
1 1 1 1 1 1 1 1 1 
1 1 1 1 1 1 1 1 1 
1 1 
velocity_v 1 299 float
-2.76625e-08 -2.43033e-08 -2.73796e-08 -6.42676e-09 -3.07632e-09 7.81706e-09 9.84258e-09 2.0597e-09 3.10662e-09 
-4.47043e-10 -2.14353e-08 -1.42571e-08 -4.94075e-09 -2.29788e-09 -8.26587e-10 1.11216e-08 1.23568e-08 9.99834e-09 
-2.49186e-08 -2.16705e-08 -1.98947e-08 8.73935e-09 8.75964e-09 8.76541e-09 5.34183e-12 2.0128e-08 2.31734e-08 
7.61443e-09 5.6896e-09 -9.30812e-09 -9.87561e-09 -3.45771e-09 2.10578e-08 2.08542e-08 6.35494e-09 7.5088e-09 
6.83318e-09 -2.65801e-08 -2.64876e-08 -2.83673e-08 -1.9788e-08 4.77504e-09 5.86121e-09 -6.31918e-09 1.95807e-08 
2.226e-08 1.9133e-08 7.40598e-09 3.87579e-09 -5.79182e-09 -4.69792e-09 -1.08072e-09 2.41891e-08 2.39678e-08 
7.2262e-09 9.46732e-09 4.27411e-09 -3.1136e-08 -2.35366e-08 -7.43119e-09 -2.94799e-09 -5.19282e-09 1.76368e-08 
1.82627e-08 6.76793e-09 -7.40706e-10 -7.64822e-09 -6.1486e-09 -4.43914e-09 2.84684e-08 2.84704e-08 2.99821e-08 
8.4554e-09 1.26525e-08 7.52255e-09 -2.21117e-08 -1.54701e-08 -9.77256e-09 -4.36955e-09 -9.47871e-09 6.40909e-09 
1.36034e-08 5.51854e-09 -7.23166e-09 -1.00481e-08 -3.60166e-09 -3.96715e-09 3.13222e-08 3.32817e-08 9.94664e-09 
1.6133e-08 8.27601e-09 -1.94442e-08 -1.90136e-08 -1.79359e-08 -2.30072e-08 -1.94752e-08 -2.00622e-08 -2.25735e-08 
-7.67147e-09 1.65255e-08 1.17056e-08 -1.00827e-08 -1.02184e-08 -7.04802e-09 -7.05044e-09 -7.0734e-09 3.52232e-08 
4.22178e-08 8.95502e-09 2.12728e-08 1.53502e-08 -1.90082e-08 -2.45699e-08 -3.24868e-08 -3.78436e-08 -2.99913e-08 
1.27596e-08 8.60819e-09 -9.02885e-09 1.1595e-08 -8.9151e-09 -9.53534e-09 -1.07207e-08 -1.5098e-08 2.32396e-08 
3.8052e-08 1.10113e-08 2.83566e-08 2.07944e-08 -4.70985e-08 -4.71853e-08 -4.64587e-08 -4.36691e-08 -6.99282e-08 
-6.46128e-08 -1.11403e-07 1.11216e-08 1.11549e-08 -1.51833e-08 -1.56443e-08 -1.2378e-08 -2.18585e-08 7.18352e-09 
3.2491e-08 8.68137e-09 3.6462e-08 3.22279e-08 -3.71728e-08 -5.11577e-08 -5.44042e-08 -1.09784e-07 -1.09348e-07 
1.7634e-09 3.05818e-09 -1.74919e-08 -1.35858e-08 -1.17397e-08 -4.81406e-08 -2.32279e-08 1.96854e-08 2.71645e-09 
5.02692e-08 4.3548e-08 6.47973e-08 -5.11211e-08 -7.28002e-08 -6.38901e-08 -2.04906e-08 -1.56098e-08 -2.46324e-08 
-2.18922e-08 -1.75793e-08 -2.15324e-08 -1.56249e-08 -5.91697e-08 -1.63808e-08 -5.06116e-08 8.44013e-09 -6.81939e-08 
3.63876e-09 1.92663e-09 6.4786e-08 -3.77576e-08 -4.54721e-08 -3.57841e-08 -2.77075e-08 -2.3128e-08 -2.26307e-08 
-2.1493e-08 -1.73998e-08 -4.71651e-09 -4.84362e-08 -6.401e-08 -3.98807e-09 -1.18504e-09 4.58694e-08 -4.32004e-08 
-4.61348e-08 -2.46137e-08 -4.70544e-08 -2.8754e-08 -4.27009e-08 -4.55981e-08 -3.37052e-08 2.06344e-08 -3.1685e-08 
9.45952e-09 -3.42832e-08 2.10324e-08 -1.13276e-08 -5.80543e-10 3.213e-08 -4.37845e-08 -5.89648e-08 -6.49758e-08 
-3.5119e-08 -1.95597e-08 -2.25716e-08 1.92695e-08 1.76152e-08 -1.85939e-08 4.54432e-09 -2.52333e-08 1.48791e-08 
3.00157e-09 -5.03045e-08 -5.14203e-08 -7.4558e-08 -5.29195e-08 -6.82899e-08 -2.19776e-08 -7.29174e-08 7.79444e-09 
1.0399e-08 -2.07845e-08 -3.17416e-08 -3.09939e-08 -3.50246e-10 -4.55585e-08 -4.75749e-08 -6.11322e-08 -2.82376e-10 
-1.57123e-08 -2.80688e-08 -2.10354e-08 -2.70807e-08 -1.85739e-08 -1.52494e-08 -2.01833e-09 -2.12619e-08 -7.01799e-08 
2.55582e-09 -5.85654e-08 -2.36829e-09 -5.25955e-08 8.41531e-09 9.76222e-09 -2.11944e-08 3.23457e-08 -1.87708e-08 
1.65134e-08 -4.56996e-09 -1.0225e-08 -1.87523e-08 -1.00126e-08 -1.79631e-08 -5.71292e-09 -4.1927e-10 2.50312e-09 
-2.52686e-08 2.42465e-08 2.57989e-08 9.13197e-10 -1.28333e-10 2.71788e-08 -8.24262e-09 -1.05216e-08 -8.9228e-09 
1.26173e-08 3.92492e-08 -9.12467e-08 -5.41222e-08 4.54348e-08 -4.16892e-08 4.09242e-08 -1.58769e-08 -4.18435e-09 
1.44143e-09 6.99904e-08 -4.58363e-08 5.85332e-08 3.23866e-08 -5.29014e-08 -8.9846e-08 1.45814e-07 2.1246e-07 
-3.96324e-07 -4.30486e-07 
velocity_w 1 299 float
-3.14094e-08 -2.79895e-08 -4.28091e-08 -2.75346e-08 -2.42332e-08 8.11675e-09 6.37884e-09 6.11819e-09 1.29392e-08 
1.46648e-08 2.88647e-08 5.95654e-09 -1.47166e-08 -1.12677e-08 -1.04808e-08 6.12735e-09 5.48694e-09 2.58947e-10 
-2.1636e-08 -1.07389e-08 -2.3402e-08 -3.05212e-08 -3.05309e-08 -3.04587e-08 -8.09371e-10 -1.02029e-09 -4.35159e-09 
2.55362e-08 2.82107e-08 2.31633e-08 5.47107e-09 -5.85259e-09 -1.08868e-08 -1.41888e-08 1.14042e-08 1.23074e-08 
8.81641e-09 -1.9492e-08 -1.65176e-08 -4.11023e-09 -2.25185e-08 -2.38752e-08 -1.97998e-08 3.79399e-09 -2.58263e-09 
-6.35059e-09 -7.36403e-10 1.62836e-08 2.34837e-08 2.11016e-08 8.21614e-10 -5.74699e-09 -1.15349e-08 -1.34913e-08 
7.17317e-09 8.7806e-09 1.07636e-08 8.97054e-09 -1.80528e-08 -3.02932e-08 -2.25152e-08 -1.41509e-08 8.53088e-10 
4.04664e-10 1.63944e-08 2.76967e-08 2.01815e-08 -1.09916e-08 -1.30105e-08 -1.46536e-08 -1.51443e-08 -1.45321e-08 
8.42348e-09 1.10714e-08 1.20405e-08 -1.47494e-08 -2.27536e-08 -2.57617e-08 -3.29365e-08 -3.02755e-08 -1.97374e-09 
-1.08527e-08 6.37728e-10 2.27048e-08 1.65153e-08 -1.79948e-08 -1.74751e-08 -1.15891e-08 -1.11613e-08 7.65218e-09 
1.2702e-08 1.19635e-08 -5.56999e-08 -5.51913e-08 -5.69463e-08 -4.08768e-08 -5.69259e-08 -5.48098e-08 -6.29564e-08 
9.35041e-10 -2.34427e-08 -7.47084e-09 3.10464e-08 2.4957e-08 -2.28201e-08 -2.28061e-08 -2.28507e-08 -1.50222e-08 
-1.40541e-08 1.10106e-08 1.84601e-08 1.24073e-08 -5.43329e-08 -2.99202e-08 -6.57374e-08 -4.91927e-08 -9.52247e-09 
-4.14898e-08 -2.50947e-08 2.87407e-08 -6.26142e-08 2.81735e-08 2.83118e-08 -2.22938e-08 -2.23588e-08 -1.09997e-08 
-1.09449e-08 4.03091e-09 1.5925e-08 1.17953e-08 -1.62491e-08 -1.58851e-08 -1.50325e-08 -8.42428e-08 -3.29238e-08 
-4.61342e-09 1.18711e-08 -6.24374e-08 -6.24759e-08 2.57074e-08 1.57578e-08 -2.48383e-08 -2.5209e-08 -1.72091e-08 
-1.60183e-08 1.86754e-10 1.69813e-08 1.19791e-08 -5.19295e-08 -8.91208e-08 -8.76513e-08 9.94604e-09 1.37462e-08 
-4.68031e-08 -3.87413e-08 2.64699e-08 -6.57979e-09 -2.69477e-08 -1.75073e-08 -8.3836e-09 -1.59959e-08 -1.33066e-08 
7.63142e-09 5.87835e-09 6.5622e-09 -7.67187e-08 -2.78543e-08 8.31021e-09 -6.15647e-09 -4.87648e-09 2.88349e-08 
1.82336e-08 -3.51951e-08 2.84163e-08 -3.82182e-08 -1.4082e-08 -4.35776e-08 -1.31804e-08 -1.89519e-08 -1.64321e-08 
-1.6474e-08 -2.2196e-08 6.56691e-09 -5.19844e-08 -4.46695e-08 -4.0071e-08 2.72525e-08 2.22639e-08 2.22697e-08 
4.37118e-08 -1.55263e-08 -3.99173e-08 -1.99064e-08 -2.15182e-08 -2.80978e-08 -2.36602e-08 8.59907e-09 1.01228e-09 
1.40112e-08 -5.82927e-09 7.46907e-09 -9.71386e-09 5.82861e-08 2.95526e-09 4.87252e-08 -2.83426e-08 5.22077e-08 
-1.88875e-08 -1.73115e-08 -3.14503e-08 -2.07134e-08 -8.72954e-09 3.53469e-09 2.5311e-09 1.11284e-08 1.65566e-08 
3.22704e-08 2.265e-08 -2.57461e-08 -3.26198e-08 -3.14234e-08 -2.62399e-08 -5.31544e-09 -2.52219e-08 1.49031e-10 
-4.1405e-09 -1.97452e-08 -1.52038e-08 3.95352e-09 -1.2168e-08 1.21287e-08 -1.1275e-08 3.00355e-09 -4.05792e-08 
-4.12951e-08 -4.01954e-08 -2.58692e-08 -1.14801e-08 -2.86993e-09 2.01423e-08 1.42304e-08 5.11786e-09 1.67897e-08 
-3.51962e-08 -3.13198e-08 -4.01374e-08 -2.90529e-08 7.11238e-09 -3.56279e-08 3.05776e-09 2.13737e-08 1.63484e-08 
1.39257e-08 1.2319e-08 -4.0173e-08 2.12243e-08 -4.37251e-08 -2.08464e-08 2.15503e-08 1.06237e-08 -3.05177e-08 
7.99138e-09 1.57283e-08 1.27533e-08 -3.05438e-08 -1.42537e-09 -3.09447e-08 7.09816e-09 2.10564e-08 -1.09946e-08 
1.34936e-08 -3.55175e-08 -3.05848e-08 -9.12716e-09 2.11281e-08 -4.88519e-08 -3.73964e-09 -1.0751e-08 1.1142e-09 
-7.07663e-09 2.56258e-09 -1.27655e-08 -2.74836e-08 -4.02455e-08 -3.12147e-08 1.90473e-09 4.96498e-08 -2.6389e-08 
2.06918e-08 -8.36465e-08 -4.8411e-08 -7.36149e-08 -1.95387e-08 1.05689e-07 1.65226e-07 -2.69104e-07 -3.17525e-07 
5.25008e-07 5.59403e-07 
temperature 1 299 float
0.178573 0.178573 0.178573 0.178573 0.178573 0.178573 0.178573 0.178573 0.178573 
0.178573 0.178573 0.178573 0.178573 0.178573 0.178573 0.178573 0.178573 0.178573 
0.178573 0.178573 0.178573 0.178573 0.178573 0.178573 0.178573 0.178573 0.178573 
0.178573 0.178573 0.178573 0.178573 0.178573 0.178573 0.178573 0.178573 0.178573 
0.178573 0.178573 0.178573 0.178573 0.178573 0.178573 0.178573 0.178573 0.178573 
0.178573 0.178573 0.178573 0.178573 0.178573 0.178573 0.178573 0.178573 0.178573 
0.178573 0.178573 0.178573 0.178573 0.178573 0.178573 0.178573 0.178573 0.178573 
0.178573 0.178573 0.178573 0.178573 0.178573 0.178573 0.178573 0.178573 0.178573 
0.178573 0.178573 0.178573 0.178573 0.178573 0.178573 0.178573 0.178573 0.178573 
0.178573 0.178573 0.178573 0.178573 0.178573 0.178573 0.178573 0.178573 0.178573 
0.178573 0.178573 0.178573 0.178573 0.178573 0.178573 0.178573 0.178573 0.178573 
0.178573 0.178573 0.178573 0.178573 0.178573 0.178573 0.178573 0.178573 0.178573 
0.178573 0.178573 0.178573 0.178573 0.178573 0.178573 0.178573 0.178573 0.178573 
0.178573 0.178573 0.178573 0.178573 0.178573 0.178573 0.178573 0.178573 0.178573 
0.178573 0.178573 0.178573 0.178573 0.178573 0.178573 0.178573 0.178573 0.178573 
0.178573 0.178573 0.178573 0.178573 0.178573 0.178573 0.178573 0.178573 0.178573 
0.178573 0.178573 0.178573 0.178573 0.178573 0.178573 0.178573 0.178573 0.178573 
0.178573 0.178573 0.178573 0.178573 0.178573 0.178573 0.178573 0.178573 0.178573 
0.178573 0.178573 0.178573 0.178573 0.178573 0.178573 0.178573 0.178573 0.178573 
0.178573 0.178573 0.178573 0.178573 0.178573 0.178573 0.178573 0.178573 0.178573 
0.178573 0.178573 0.178573 0.178573 0.178573 0.178573 0.178573 0.178573 0.178573 
0.178573 0.178573 0.178573 0.178573 0.178573 0.178573 0.178573 0.178573 0.178573 
0.178573 0.178573 0.178573 0.178573 0.178573 0.178573 0.178573 0.178573 0.178573 
0.178573 0.178573 0.178573 0.178573 0.178573 0.178573 0.178573 0.178573 0.178573 
0.178573 0.178573 0.178573 0.178573 0.178573 0.178573 0.178573 0.178573 0.178573 
0.178573 0.178573 0.178573 0.178573 0.178573 0.178573 0.178573 0.178573 0.178573 
0.178573 0.178573 0.178573 0.178573 0.178573 0.178573 0.178573 0.178573 0.178573 
0.178573 0.178573 0.178573 0.178573 0.178573 0.178573 0.178573 0.178573 0.178573 
0.178573 0.178573 0.178573 0.178573 0.178573 0.178573 0.178573 0.178573 0.178573 
0.178573 0.178573 0.178573 0.178573 0.178573 0.178573 0.178573 0.178573 0.178573 
0.178573 0.178573 0.178573 0.178573 0.178573 0.178573 0.178573 0.178573 0.178573 
0.178573 0.178573 0.178573 0.178573 0.178573 0.178573 0.178573 0.178573 0.178573 
0.178573 0.178573 0.178573 0.178573 0.178573 0.178573 0.178573 0.178573 0.178573 
0.178573 0.178573 
