# vtk DataFile Version 5.1
vtk output
ASCII
DATASET STRUCTURED_GRID
DIMENSIONS 25 46 30
POINTS 34500 float
0.407217 0.005 -0.55 0.407217 0.005 -0.553 0.407217 0.005 -0.55609 
0.407217 0.005 -0.559363 0.407217 0.005 -0.562918 0.407217 0.005 -0.566862 
0.407217 0.005 -0.571312 0.407217 0.005 -0.576403 0.407217 0.005 -0.582287 
0.407217 0.005 -0.589143 0.407217 0.005 -0.597175 0.407217 0.005 -0.606626 
0.407217 0.005 -0.617779 0.407217 0.005 -0.630969 0.407217 0.005 -0.646595 
0.407217 0.005 -0.665124 0.407217 0.005 -0.687115 0.407217 0.005 -0.713228 
0.407217 0.005 -0.744248 0.407217 0.005 -0.781109 0.407217 0.005 -0.824918 
0.407217 0.005 -0.876993 0.407217 0.005 -0.938899 0.407217 0.005 -1.0125 
0.407217 0.005 -1.1 0.408915 0.00605752 -0.55 0.408915 0.00605752 -0.553 
0.408915 0.00605752 -0.55609 0.408915 0.00605752 -0.559363 0.408915 0.00605752 -0.562918 
0.408915 0.00605752 -0.566862 0.408915 0.00605752 -0.571312 0.408915 0.00605752 -0.576403 
0.408915 0.00605752 -0.582287 0.408915 0.00605752 -0.589143 0.408915 0.00605752 -0.597175 
0.408915 0.00605752 -0.606626 0.408915 0.00605752 -0.617779 0.408915 0.00605752 -0.630969 
0.408915 0.00605752 -0.646595 0.408915 0.00605752 -0.665124 0.408915 0.00605752 -0.687115 
0.408915 0.00605752 -0.713228 0.408915 0.00605752 -0.744248 0.408915 0.00605752 -0.781109 
0.408915 0.00605752 -0.824918 0.408915 0.00605752 -0.876993 0.408915 0.00605752 -0.938899 
0.408915 0.00605752 -1.0125 0.408915 0.00605752 -1.1 0.410726 0.0071858 -0.55 
0.410726 0.0071858 -0.553 0.410726 0.0071858 -0.55609 0.410726 0.0071858 -0.559363 
0.410726 0.0071858 -0.562918 0.410726 0.0071858 -0.566862 0.410726 0.0071858 -0.571312 
0.410726 0.0071858 -0.576403 0.410726 0.0071858 -0.582287 0.410726 0.0071858 -0.589143 
0.410726 0.0071858 -0.597175 0.410726 0.0071858 -0.606626 0.410726 0.0071858 -0.617779 
0.410726 0.0071858 -0.630969 0.410726 0.0071858 -0.646595 0.410726 0.0071858 -0.665124 
0.410726 0.0071858 -0.687115 0.410726 0.0071858 -0.713228 0.410726 0.0071858 -0.744248 
0.410726 0.0071858 -0.781109 0.410726 0.0071858 -0.824918 0.410726 0.0071858 -0.876993 
0.410726 0.0071858 -0.938899 0.410726 0.0071858 -1.0125 0.410726 0.0071858 -1.1 
0.412658 0.00838939 -0.55 0.412658 0.00838939 -0.553 0.412658 0.00838939 -0.55609 
0.412658 0.00838939 -0.559363 0.412658 0.00838939 -0.562918 0.412658 0.00838939 -0.566862 
0.412658 0.00838939 -0.571312 0.412658 0.00838939 -0.576403 0.412658 0.00838939 -0.582287 
0.412658 0.00838939 -0.589143 0.412658 0.00838939 -0.597175 0.412658 0.00838939 -0.606626 
0.412658 0.00838939 -0.617779 0.412658 0.00838939 -0.630969 0.412658 0.00838939 -0.646595 
0.412658 0.00838939 -0.665124 0.412658 0.00838939 -0.687115 0.412658 0.00838939 -0.713228 
0.412658 0.00838939 -0.744248 0.412658 0.00838939 -0.781109 0.412658 0.00838939 -0.824918 
0.412658 0.00838939 -0.876993 0.412658 0.00838939 -0.938899 0.412658 0.00838939 -1.0125 
0.412658 0.00838939 -1.1 0.414719 0.00967311 -0.55 0.414719 0.00967311 -0.553 
0.414719 0.00967311 -0.55609 0.414719 0.00967311 -0.559363 0.414719 0.00967311 -0.562918 
0.414719 0.00967311 -0.566862 0.414719 0.00967311 -0.571312 0.414719 0.00967311 -0.576403 
0.414719 0.00967311 -0.582287 0.414719 0.00967311 -0.589143 0.414719 0.00967311 -0.597175 
0.414719 0.00967311 -0.606626 0.414719 0.00967311 -0.617779 0.414719 0.00967311 -0.630969 
0.414719 0.00967311 -0.646595 0.414719 0.00967311 -0.665124 0.414719 0.00967311 -0.687115 
0.414719 0.00967311 -0.713228 0.414719 0.00967311 -0.744248 0.414719 0.00967311 -0.781109 
0.414719 0.00967311 -0.824918 0.414719 0.00967311 -0.876993 0.414719 0.00967311 -0.938899 
0.414719 0.00967311 -1.0125 0.414719 0.00967311 -1.1 0.416916 0.0110421 -0.55 
0.416916 0.0110421 -0.553 0.416916 0.0110421 -0.55609 0.416916 0.0110421 -0.559363 
0.416916 0.0110421 -0.562918 0.416916 0.0110421 -0.566862 0.416916 0.0110421 -0.571312 
0.416916 0.0110421 -0.576403 0.416916 0.0110421 -0.582287 0.416916 0.0110421 -0.589143 
0.416916 0.0110421 -0.597175 0.416916 0.0110421 -0.606626 0.416916 0.0110421 -0.617779 
0.416916 0.0110421 -0.630969 0.416916 0.0110421 -0.646595 0.416916 0.0110421 -0.665124 
0.416916 0.0110421 -0.687115 0.416916 0.0110421 -0.713228 0.416916 0.0110421 -0.744248 
0.416916 0.0110421 -0.781109 0.416916 0.0110421 -0.824918 0.416916 0.0110421 -0.876993 
0.416916 0.0110421 -0.938899 0.416916 0.0110421 -1.0125 0.416916 0.0110421 -1.1 
0.419259 0.0125016 -0.55 0.419259 0.0125016 -0.553 0.419259 0.0125016 -0.55609 
0.419259 0.0125016 -0.559363 0.419259 0.0125016 -0.562918 0.419259 0.0125016 -0.566862 
0.419259 0.0125016 -0.571312 0.419259 0.0125016 -0.576403 0.419259 0.0125016 -0.582287 
0.419259 0.0125016 -0.589143 0.419259 0.0125016 -0.597175 0.419259 0.0125016 -0.606626 
0.419259 0.0125016 -0.617779 0.419259 0.0125016 -0.630969 0.419259 0.0125016 -0.646595 
0.419259 0.0125016 -0.665124 0.419259 0.0125016 -0.687115 0.419259 0.0125016 -0.713228 
0.419259 0.0125016 -0.744248 0.419259 0.0125016 -0.781109 0.419259 0.0125016 -0.824918 
0.419259 0.0125016 -0.876993 0.419259 0.0125016 -0.938899 0.419259 0.0125016 -1.0125 
0.419259 0.0125016 -1.1 0.421757 0.0140576 -0.55 0.421757 0.0140576 -0.553 
0.421757 0.0140576 -0.55609 0.421757 0.0140576 -0.559363 0.421757 0.0140576 -0.562918 
0.421757 0.0140576 -0.566862 0.421757 0.0140576 -0.571312 0.421757 0.0140576 -0.576403 
0.421757 0.0140576 -0.582287 0.421757 0.0140576 -0.589143 0.421757 0.0140576 -0.597175 
0.421757 0.0140576 -0.606626 0.421757 0.0140576 -0.617779 0.421757 0.0140576 -0.630969 
0.421757 0.0140576 -0.646595 0.421757 0.0140576 -0.665124 0.421757 0.0140576 -0.687115 
0.421757 0.0140576 -0.713228 0.421757 0.0140576 -0.744248 0.421757 0.0140576 -0.781109 
0.421757 0.0140576 -0.824918 0.421757 0.0140576 -0.876993 0.421757 0.0140576 -0.938899 
0.421757 0.0140576 -1.0125 0.421757 0.0140576 -1.1 0.424418 0.0157158 -0.55 
0.424418 0.0157158 -0.553 0.424418 0.0157158 -0.55609 0.424418 0.0157158 -0.559363 
0.424418 0.0157158 -0.562918 0.424418 0.0157158 -0.566862 0.424418 0.0157158 -0.571312 
0.424418 0.0157158 -0.576403 0.424418 0.0157158 -0.582287 0.424418 0.0157158 -0.589143 
0.424418 0.0157158 -0.597175 0.424418 0.0157158 -0.606626 0.424418 0.0157158 -0.617779 
0.424418 0.0157158 -0.630969 0.424418 0.0157158 -0.646595 0.424418 0.0157158 -0.665124 
0.424418 0.0157158 -0.687115 0.424418 0.0157158 -0.713228 0.424418 0.0157158 -0.744248 
0.424418 0.0157158 -0.781109 0.424418 0.0157158 -0.824918 0.424418 0.0157158 -0.876993 
0.424418 0.0157158 -0.938899 0.424418 0.0157158 -1.0125 0.424418 0.0157158 -1.1 
0.427255 0.0174827 -0.55 0.427255 0.0174827 -0.553 0.427255 0.0174827 -0.55609 
0.427255 0.0174827 -0.559363 0.427255 0.0174827 -0.562918 0.427255 0.0174827 -0.566862 
0.427255 0.0174827 -0.571312 0.427255 0.0174827 -0.576403 0.427255 0.0174827 -0.582287 
0.427255 0.0174827 -0.589143 0.427255 0.0174827 -0.597175 0.427255 0.0174827 -0.606626 
0.427255 0.0174827 -0.617779 0.427255 0.0174827 -0.630969 0.427255 0.0174827 -0.646595 
0.427255 0.0174827 -0.665124 0.427255 0.0174827 -0.687115 0.427255 0.0174827 -0.713228 
0.427255 0.0174827 -0.744248 0.427255 0.0174827 -0.781109 0.427255 0.0174827 -0.824918 
0.427255 0.0174827 -0.876993 0.427255 0.0174827 -0.938899 0.427255 0.0174827 -1.0125 
0.427255 0.0174827 -1.1 0.430276 0.019365 -0.55 0.430276 0.019365 -0.553 
0.430276 0.019365 -0.55609 0.430276 0.019365 -0.559363 0.430276 0.019365 -0.562918 
0.430276 0.019365 -0.566862 0.430276 0.019365 -0.571312 0.430276 0.019365 -0.576403 
0.430276 0.019365 -0.582287 0.430276 0.019365 -0.589143 0.430276 0.019365 -0.597175 
0.430276 0.019365 -0.606626 0.430276 0.019365 -0.617779 0.430276 0.019365 -0.630969 
0.430276 0.019365 -0.646595 0.430276 0.019365 -0.665124 0.430276 0.019365 -0.687115 
0.430276 0.019365 -0.713228 0.430276 0.019365 -0.744248 0.430276 0.019365 -0.781109 
0.430276 0.019365 -0.824918 0.430276 0.019365 -0.876993 0.430276 0.019365 -0.938899 
0.430276 0.019365 -1.0125 0.430276 0.019365 -1.1 0.433494 0.0213697 -0.55 
0.433494 0.0213697 -0.553 0.433494 0.0213697 -0.55609 0.433494 0.0213697 -0.559363 
0.433494 0.0213697 -0.562918 0.433494 0.0213697 -0.566862 0.433494 0.0213697 -0.571312 
0.433494 0.0213697 -0.576403 0.433494 0.0213697 -0.582287 0.433494 0.0213697 -0.589143 
0.433494 0.0213697 -0.597175 0.433494 0.0213697 -0.606626 0.433494 0.0213697 -0.617779 
0.433494 0.0213697 -0.630969 0.433494 0.0213697 -0.646595 0.433494 0.0213697 -0.665124 
0.433494 0.0213697 -0.687115 0.433494 0.0213697 -0.713228 0.433494 0.0213697 -0.744248 
0.433494 0.0213697 -0.781109 0.433494 0.0213697 -0.824918 0.433494 0.0213697 -0.876993 
0.433494 0.0213697 -0.938899 0.433494 0.0213697 -1.0125 0.433494 0.0213697 -1.1 
0.43692 0.0235042 -0.55 0.43692 0.0235042 -0.553 0.43692 0.0235042 -0.55609 
0.43692 0.0235042 -0.559363 0.43692 0.0235042 -0.562918 0.43692 0.0235042 -0.566862 
0.43692 0.0235042 -0.571312 0.43692 0.0235042 -0.576403 0.43692 0.0235042 -0.582287 
0.43692 0.0235042 -0.589143 0.43692 0.0235042 -0.597175 0.43692 0.0235042 -0.606626 
0.43692 0.0235042 -0.617779 0.43692 0.0235042 -0.630969 0.43692 0.0235042 -0.646595 
0.43692 0.0235042 -0.665124 0.43692 0.0235042 -0.687115 0.43692 0.0235042 -0.713228 
0.43692 0.0235042 -0.744248 0.43692 0.0235042 -0.781109 0.43692 0.0235042 -0.824918 
0.43692 0.0235042 -0.876993 0.43692 0.0235042 -0.938899 0.43692 0.0235042 -1.0125 
0.43692 0.0235042 -1.1 0.440567 0.0257762 -0.55 0.440567 0.0257762 -0.553 
0.440567 0.0257762 -0.55609 0.440567 0.0257762 -0.559363 0.440567 0.0257762 -0.562918 
0.440567 0.0257762 -0.566862 0.440567 0.0257762 -0.571312 0.440567 0.0257762 -0.576403 
0.440567 0.0257762 -0.582287 0.440567 0.0257762 -0.589143 0.440567 0.0257762 -0.597175 
0.440567 0.0257762 -0.606626 0.440567 0.0257762 -0.617779 0.440567 0.0257762 -0.630969 
0.440567 0.0257762 -0.646595 0.440567 0.0257762 -0.665124 0.440567 0.0257762 -0.687115 
0.440567 0.0257762 -0.713228 0.440567 0.0257762 -0.744248 0.440567 0.0257762 -0.781109 
[...]
POINT_DATA 34500
FIELD FieldData 5
pressure 1 34500 float
0.179629 0.179595 0.182308 0.182288 0.182636 0.182549 0.182401 0.182103 0.181703 
0.181202 0.180656 0.180178 0.179807 0.179671 0.179907 0.180191 0.180129 0.179851 
0.179179 0.178706 0.178593 0.17856 0.178572 0.178573 0.178573 0.181199 0.181199 
0.183344 0.183095 0.183393 0.183283 0.183085 0.182724 0.18223 0.181616 0.180942 
0.180319 0.179846 0.179699 0.179995 0.180358 0.180324 0.180013 0.179248 0.178721 
0.178595 0.17856 0.178572 0.178573 0.178573 0.181471 0.181471 0.183836 0.183573 
0.18395 0.18384 0.183639 0.183292 0.182823 0.182225 0.181568 0.18093 0.180422 
0.180189 0.180394 0.180688 0.180629 0.180309 0.179441 0.178777 0.178603 0.17856 
0.178571 0.178573 0.178573 0.182047 0.182047 0.1844 0.184281 0.184686 0.184545 
0.18434 0.183974 0.183494 0.182886 0.182185 0.181494 0.180905 0.180608 0.180742 
0.18098 0.180889 0.18055 0.179602 0.178827 0.178609 0.17856 0.178571 0.178573 
0.178573 0.182028 0.182028 0.184807 0.184902 0.185331 0.185195 0.184974 0.184615 
0.184148 0.183546 0.182852 0.182132 0.181501 0.181123 0.181171 0.181337 0.181195 
0.180843 0.179805 0.178892 0.178618 0.17856 0.17857 0.178573 0.178573 0.181909 
0.181909 0.18527 0.185566 0.186054 0.185899 0.185671 0.185296 0.184824 0.184224 
0.183508 0.182764 0.182075 0.181629 0.181596 0.181691 0.181502 0.181135 0.180015 
0.178964 0.178628 0.178561 0.17857 0.178573 0.178573 0.181804 0.181804 0.185585 
0.186161 0.18673 0.1866 0.186348 0.185975 0.185507 0.184906 0.184197 0.183426 
0.182706 0.182181 0.182064 0.182083 0.181836 0.181457 0.180254 0.17905 0.178639 
0.178562 0.178569 0.178574 0.178573 0.181762 0.181762 0.185912 0.186724 0.187439 
0.187307 0.187063 0.186674 0.186204 0.185609 0.184884 0.184105 0.183338 0.182752 
0.182547 0.182487 0.182188 0.181793 0.180512 0.179148 0.178653 0.178563 0.178568 
0.178574 0.178573 0.181743 0.181743 0.186199 0.18722 0.188119 0.188025 0.187767 
0.187385 0.186916 0.186318 0.185602 0.184797 0.184011 0.183351 0.183063 0.182925 
0.182562 0.182154 0.180797 0.179262 0.178669 0.178565 0.178567 0.178574 0.178573 
0.181822 0.181822 0.186458 0.187644 0.188824 0.188737 0.188497 0.188108 0.187641 
0.18705 0.186323 0.185516 0.184689 0.183976 0.1836 0.183382 0.182965 0.182533 
0.181108 0.179394 0.178689 0.178568 0.178566 0.178574 0.178573 0.181958 0.181958 
0.18661 0.188077 0.189493 0.189459 0.189224 0.188843 0.18838 0.18779 0.187072 
0.186242 0.185401 0.18462 0.184164 0.183873 0.183392 0.182937 0.181447 0.179547 
0.178713 0.178571 0.178565 0.178574 0.178573 0.182059 0.182059 0.18673 0.188527 
0.190146 0.190178 0.189963 0.189592 0.189132 0.188549 0.187827 0.186993 0.186117 
0.185291 0.184755 0.18439 0.183852 0.183358 0.181815 0.179723 0.178742 0.178576 
0.178564 0.178574 0.178573 0.182085 0.182085 0.186821 0.18896 0.190787 0.190888 
0.190716 0.190347 0.189897 0.189318 0.188597 0.187751 0.186855 0.185982 0.185375 
0.184946 0.184335 0.183804 0.182214 0.179926 0.178778 0.178581 0.178562 0.178573 
0.178573 0.182062 0.182062 0.186844 0.189384 0.191392 0.191626 0.191466 0.191125 
0.190669 0.190094 0.189377 0.188511 0.187608 0.186694 0.186033 0.185528 0.18485 
0.184266 0.182647 0.180161 0.178823 0.178588 0.178561 0.178573 0.178573 0.181991 
0.181991 0.186833 0.189757 0.191997 0.192334 0.192248 0.191899 0.191453 0.190876 
0.190146 0.189289 0.188357 0.187448 0.186717 0.186151 0.185382 0.18475 0.183115 
0.180431 0.178878 0.178596 0.17856 0.178573 0.178573 0.181903 0.181903 0.186779 
0.190099 0.192539 0.193065 0.193013 0.192696 0.192231 0.191649 0.190925 0.190041 
0.18915 0.188208 0.187457 0.186794 0.185939 0.185253 0.183617 0.180742 0.178946 
0.178606 0.17856 0.178573 0.178573 0.181858 0.181858 0.186691 0.190421 0.193055 
0.193759 0.193791 0.193476 0.193009 0.192414 0.191681 0.19083 0.189928 0.189038 
0.188204 0.187473 0.186514 0.185775 0.184159 0.181096 0.179031 0.178618 0.178559 
0.178572 0.178573 0.181709 0.181709 0.186566 0.190703 0.193518 0.194439 0.194543 
0.194253 0.193766 0.193161 0.192446 0.191611 0.190776 0.189868 0.189001 0.188158 
0.187112 0.186328 0.184735 0.181501 0.179136 0.178632 0.178559 0.178571 0.178573 
0.181462 0.181462 0.186403 0.190902 0.193933 0.195074 0.195272 0.195001 0.194506 
0.193897 0.19321 0.192439 0.191641 0.190758 0.189788 0.188866 0.187742 0.186908 
0.185348 0.181959 0.179266 0.17865 0.17856 0.178571 0.178573 0.181093 0.181093 
0.186192 0.191006 0.194278 0.195657 0.195958 0.195722 0.195227 0.19463 0.19399 
0.193292 0.192554 0.191657 0.190588 0.189575 0.18841 0.187533 0.18599 0.182475 
0.179425 0.178671 0.178561 0.178569 0.178573 0.180795 0.180795 0.185956 0.191006 
0.194538 0.196166 0.196598 0.196413 0.19594 0.195373 0.194795 0.194174 0.193487 
0.192563 0.19138 0.190294 0.189125 0.188198 0.186662 0.183051 0.179622 0.178698 
0.178564 0.178568 0.178573 0.180599 0.180599 0.185701 0.190899 0.19469 0.196588 
0.197184 0.197088 0.19666 0.196147 0.195633 0.195079 0.194408 0.193454 0.192166 
0.191037 0.189892 0.188892 0.187354 0.183694 0.179861 0.178732 0.178568 0.178567 
0.178573 0.180459 0.180459 0.185365 0.190662 0.194717 0.196916 0.197732 0.197769 
0.197423 0.19697 0.196517 0.195983 0.195296 0.194297 0.192971 0.191832 0.190711 
0.189599 0.188053 0.184407 0.180153 0.178774 0.178574 0.178566 0.178572 0.180379 
0.180379 0.185001 0.190309 0.194619 0.197149 0.19826 0.198502 0.198259 0.197863 
0.19742 0.196872 0.196114 0.195104 0.193809 0.19271 0.191581 0.190298 0.188752 
0.18519 0.180508 0.178829 0.178581 0.178565 0.178572 0.180295 0.180295 0.184645 
0.189924 0.194422 0.197301 0.198759 0.199274 0.199177 0.198796 0.198319 0.197697 
0.196888 0.195885 0.194702 0.193661 0.192478 0.190993 0.189451 0.186035 0.180936 
0.178899 0.178592 0.178564 0.178572 0.180054 0.180054 0.184273 0.189534 0.194196 
0.197359 0.19918 0.200009 0.20009 0.19974 0.199176 0.198489 0.19764 0.196706 
0.195645 0.194647 0.193371 0.191686 0.190171 0.186931 0.181446 0.178988 0.178604 
0.178563 0.178571 0.179816 0.179816 0.183952 0.189204 0.193972 0.197356 0.199465 
0.200615 0.200923 0.20064 0.200035 0.199274 0.198434 0.197568 0.196631 0.19564 
0.194249 0.192411 0.190918 0.187865 0.182047 0.179102 0.17862 0.178562 0.178571 
0.179789 0.179789 0.183787 0.188981 0.193796 0.197308 0.199629 0.201039 0.201595 
0.201455 0.200864 0.200077 0.199245 0.198467 0.197642 0.196644 0.19513 0.193156 
0.191724 0.188839 0.182744 0.17925 0.178641 0.178563 0.17857 0.179854 0.179854 
0.183736 0.18886 0.193674 0.197243 0.199691 0.2013 0.202076 0.202129 0.201649 
0.200912 0.200137 0.199441 0.198677 0.197594 0.19592 0.193902 0.192633 0.189848 
0.183545 0.179442 0.178666 0.178563 0.17857 0.179829 0.179829 0.183653 0.188745 
0.193551 0.197142 0.19967 0.201425 0.202413 0.202678 0.202407 0.201822 0.201157 
0.200489 0.199676 0.198414 0.196687 0.194749 0.193579 0.190842 0.184463 0.179692 
0.178699 0.178565 0.17857 0.179777 0.179777 0.183489 0.188527 0.193338 0.196959 
0.199576 0.201487 0.202701 0.203234 0.2032 0.202829 0.202252 0.201522 0.200552 
0.199161 0.197526 0.195813 0.194488 0.191753 0.185494 0.180015 0.178742 0.178568 
0.178569 0.179555 0.179555 0.183159 0.188151 0.192974 0.19667 0.19942 0.201539 
0.203046 0.20388 0.204095 0.203848 0.203287 0.202403 0.201305 0.199923 0.198522 
0.197022 0.195354 0.19266 0.186611 0.180426 0.1788 0.178573 0.178569 0.179205 
0.179205 0.182741 0.187712 0.192555 0.196341 0.19925 0.201596 0.203401 0.204552 
0.204971 0.204784 0.204149 0.203166 0.20204 0.200838 0.199615 0.198133 0.196108 
0.1937 0.187831 0.180939 0.178875 0.178581 0.178569 0.17898 0.17898 0.182454 
0.187422 0.192268 0.196101 0.199102 0.201592 0.203607 0.205019 0.205662 0.205553 
0.204937 0.203968 0.202929 0.201854 0.200664 0.199026 0.196853 0.194832 0.189136 
0.181578 0.178972 0.178592 0.178569 0.179041 0.179041 0.182403 0.187331 0.192143 
0.195956 0.198953 0.201466 0.203572 0.205182 0.206102 0.206241 0.20579 0.204953 
0.203949 0.202827 0.201575 0.19985 0.197745 0.195932 0.190474 0.182355 0.179097 
0.178608 0.178568 0.179302 0.179302 0.182459 0.187276 0.192014 0.195785 0.19875 
0.201249 0.203398 0.20517 0.206407 0.206901 0.206714 0.20601 0.20498 0.203716 
0.202431 0.200761 0.198732 0.196963 0.191844 0.183287 0.17926 0.178632 0.178565 
0.179787 0.179787 0.182634 0.187229 0.191846 0.195555 0.198504 0.201016 0.203222 
0.20513 0.206635 0.207481 0.207563 0.206992 0.205977 0.204626 0.203307 0.2017 
0.199726 0.19798 0.193226 0.184387 0.179477 0.178665 0.178562 0.17994 0.17994 
0.182695 0.187172 0.191697 0.195348 0.198276 0.200803 0.203069 0.205085 0.206785 
0.20793 0.208292 0.207891 0.206955 0.205573 0.204162 0.202626 0.200801 0.198989 
0.194543 0.185656 0.179768 0.178712 0.178556 0.179729 0.179729 0.182513 0.187004 
0.191528 0.195169 0.198096 0.200638 0.202949 0.205055 0.206902 0.208286 0.208923 
0.208697 0.207855 0.206492 0.205063 0.203652 0.201962 0.199891 0.195821 0.187061 
0.180158 0.178778 0.178548 0.179761 0.179761 0.182382 0.186813 0.191325 0.194987 
0.197952 0.200531 0.202886 0.205053 0.20699 0.208527 0.209381 0.209348 0.208646 
0.207441 0.206107 0.204754 0.202994 0.200741 0.197179 0.188587 0.180667 0.178873 
0.178535 0.180107 0.180107 0.182518 0.186796 0.19122 0.194866 0.197839 0.200437 
0.202798 0.20497 0.206933 0.208547 0.20961 0.209866 0.209443 0.208489 0.207209 
0.205734 0.203825 0.201711 0.19855 0.190248 0.181314 0.179006 0.178516 0.180376 
0.180376 0.182712 0.186903 0.191234 0.194808 0.197727 0.200266 0.202571 0.204691 
0.206645 0.208357 0.209687 0.210364 0.210292 0.209551 0.208207 0.206607 0.204722 
0.202767 0.199676 0.192042 0.182132 0.179188 0.178489 0.180986 0.180986 0.183073 
0.187074 0.191255 0.194725 0.197547 0.199998 0.202226 0.204299 0.20627 0.208113 
0.20973 0.210814 0.211049 0.210441 0.209105 0.207588 0.205911 0.20378 0.20054 
0.193862 0.183138 0.179434 0.178453 0.181557 0.181557 0.183418 0.187195 0.191218 
0.194577 0.197327 0.199724 0.201924 0.203999 0.206006 0.207945 0.209729 0.211072 
0.211549 0.21113 0.210055 0.208762 0.207189 0.20459 0.201514 0.195638 0.184324 
0.179748 0.178416 0.181934 0.181934 0.183641 0.187262 0.191164 0.194453 0.19716 
0.199543 0.201746 0.203837 0.205854 0.207796 0.209605 0.21108 0.211844 0.21179 
0.211153 0.209989 0.208204 0.205211 0.202729 0.197392 0.185698 0.180143 0.178379 
0.182204 0.182204 0.183824 0.187338 0.191166 0.194396 0.197066 0.199411 0.201584 
0.203646 0.205629 0.207531 0.209346 0.210977 0.212142 0.212558 0.212264 0.211026 
0.208948 0.205982 0.203984 0.199054 0.187285 0.180638 0.178348 0.179595 0.179595 
0.182308 0.182288 0.182636 0.182549 0.182401 0.182103 0.181703 0.181202 0.180656 
0.180178 0.179807 0.179671 0.179907 0.180191 0.180129 0.179851 0.179179 0.178706 
0.178593 0.17856 0.178572 0.178573 0.178573 0.172015 0.172015 0.182374 0.183018 
0.183343 0.183235 0.183047 0.182697 0.182213 0.1816 0.18091 0.180278 0.179774 
0.179601 0.179873 0.180222 0.180242 0.179988 0.179256 0.178725 0.178595 0.17856 
0.178572 0.178573 0.178573 0.165667 0.165667 0.181826 0.183482 0.183927 0.183822 
0.183614 0.183264 0.182782 0.182162 0.181478 0.180811 0.180274 0.180028 0.180234 
0.180534 0.180533 0.18027 0.179443 0.17878 0.178602 0.17856 0.178571 0.178573 
0.178573 0.161884 0.161884 0.181385 0.184083 0.184671 0.184531 0.184322 0.183945 
0.183444 0.182805 0.182072 0.181357 0.180731 0.180423 0.180563 0.180819 0.18079 
0.180511 0.179605 0.178831 0.178609 0.17856 0.178571 0.178573 0.178573 0.158833 
0.158833 0.180798 0.184547 0.185301 0.185187 0.184955 0.184585 0.184092 0.183455 
0.182729 0.181975 0.18131 0.180916 0.180977 0.181164 0.181085 0.180795 0.179806 
0.178897 0.178618 0.17856 0.17857 0.178573 0.178573 0.156424 0.156424 0.18013 
0.185005 0.185991 0.185877 0.185648 0.185258 0.184764 0.184128 0.183375 0.182599 
0.181866 0.181409 0.181386 0.181508 0.181383 0.18108 0.180016 0.178971 0.178628 
0.178561 0.17857 0.178573 0.178573 0.154495 0.154495 0.179342 0.185359 0.18661 
0.186566 0.186315 0.18593 0.185437 0.184803 0.184058 0.183249 0.182487 0.181947 
0.181843 0.181889 0.181706 0.181396 0.180253 0.179058 0.17864 0.178562 0.178569 
0.178573 0.178573 0.152963 0.152963 0.178508 0.18563 0.187248 0.18725 0.187022 
0.186617 0.186127 0.185498 0.184738 0.183922 0.18311 0.18251 0.182315 0.182283 
0.182048 0.181725 0.18051 0.179158 0.178654 0.178563 0.178568 0.178574 0.178573 
0.151564 0.151564 0.177688 0.185766 0.187851 0.187943 0.187714 0.187316 0.186825 
0.186199 0.185448 0.184607 0.183779 0.183101 0.182822 0.182709 0.182413 0.182081 
0.180793 0.179274 0.17867 0.178565 0.178567 0.178574 0.178573 0.150277 0.150277 
0.176841 0.185842 0.188432 0.18863 0.188428 0.188025 0.187536 0.186918 0.186162 
0.18532 0.184454 0.183723 0.18335 0.183156 0.182806 0.182453 0.181101 0.179407 
0.17869 0.178568 0.178566 0.178574 0.178573 0.148987 0.148987 0.175877 0.185926 
0.188955 0.189309 0.189139 0.188743 0.18826 0.187647 0.1869 0.186044 0.185164 
0.184366 0.183909 0.183636 0.183223 0.18285 0.181436 0.179562 0.178715 0.178572 
0.178565 0.178574 0.178573 0.14767 0.14767 0.174862 0.18598 0.18944 0.189981 
0.189853 0.189475 0.188995 0.188393 0.187649 0.186788 0.185884 0.185035 0.184493 
0.184143 0.183675 0.183264 0.1818 0.17974 0.178745 0.178576 0.178564 0.178573 
0.178573 0.146366 0.146366 0.1738 0.185956 0.189893 0.190627 0.190576 0.190212 
0.189745 0.18915 0.188412 0.187547 0.186622 0.185729 0.185108 0.184689 0.184151 
0.183701 0.182194 0.179945 0.178783 0.178582 0.178562 0.178573 0.178573 0.145047 
0.145047 0.172675 0.185857 0.190284 0.191277 0.191293 0.190968 0.190501 0.189918 
0.189186 0.188308 0.187379 0.186442 0.185762 0.185266 0.184659 0.184154 0.182619 
0.180181 0.178829 0.178589 0.178561 0.178573 0.178573 0.143768 0.143768 0.171525 
0.185633 0.190633 0.191898 0.192026 0.191728 0.191272 0.190691 0.189959 0.189084 
0.188137 0.187194 0.186446 0.185884 0.185188 0.184628 0.183077 0.180452 0.178885 
0.178597 0.17856 0.178573 0.178573 0.142543 0.142543 0.170335 0.185318 0.190901 
0.1925 0.192755 0.192503 0.192044 0.191463 0.190734 0.189851 0.188923 0.187964 
0.18718 0.18653 0.185742 0.185119 0.18357 0.180763 0.178956 0.178607 0.17856 
0.178572 0.178573 0.141314 0.141314 0.169138 0.184916 0.191095 0.193061 0.19348 
0.193275 0.192815 0.192225 0.191498 0.190631 0.189719 0.18878 0.187938 0.187207 
0.186315 0.18563 0.184099 0.181118 0.179043 0.178619 0.178559 0.178572 0.178573 
0.140275 0.140275 0.167974 0.184394 0.1912 0.193567 0.194182 0.194036 0.193574 
0.192972 0.192258 0.191421 0.190549 0.189622 0.188727 0.187901 0.18691 0.186165 
0.184663 0.181522 0.179151 0.178634 0.178559 0.178571 0.178573 0.139522 0.139522 
0.166892 0.18378 0.191209 0.194 0.194839 0.194771 0.194314 0.193706 0.193018 
0.192233 0.191414 0.190496 0.189525 0.188607 0.187532 0.186733 0.185261 0.181979 
0.179284 0.178652 0.17856 0.17857 0.178573 0.138886 0.138886 0.16586 0.183071 
0.191117 0.19434 0.195433 0.195467 0.195035 0.194435 0.193786 0.193074 0.192311 
0.191394 0.190319 0.189319 0.188189 0.187341 0.185892 0.182492 0.179448 0.178674 
0.178562 0.178569 0.178573 0.138168 0.138168 0.164827 0.182258 0.190889 0.194565 
0.195947 0.196121 0.195742 0.195172 0.194577 0.193941 0.193233 0.192293 0.191108 
0.190031 0.188891 0.187997 0.186552 0.183064 0.179648 0.178701 0.178565 0.178568 
0.178573 0.137383 0.137383 0.163777 0.181361 0.190517 0.194653 0.196371 0.196735 
0.196448 0.195938 0.195403 0.194835 0.194151 0.193181 0.191886 0.19076 0.189642 
0.188686 0.187235 0.1837 0.179892 0.178736 0.178569 0.178567 0.178573 0.136538 
0.136538 0.162692 0.180395 0.189995 0.194606 0.196705 0.197325 0.197178 0.196754 
0.196281 0.195739 0.19504 0.194025 0.192679 0.191534 0.190449 0.189389 0.187924 
0.184405 0.180188 0.178779 0.178575 0.178566 0.178573 0.135144 0.135144 0.161463 
0.179324 0.189329 0.194419 0.19697 0.197927 0.197968 0.197638 0.197192 0.196631 
0.195864 0.194826 0.193505 0.192397 0.19131 0.190082 0.18861 0.185178 0.180547 
0.178835 0.178582 0.178565 0.178572 0.134331 0.134331 0.160334 0.17823 0.188587 
0.194124 0.197158 0.198536 0.198821 0.198566 0.198098 0.197464 0.196628 0.195598 
0.194393 0.193348 0.192206 0.190764 0.189291 0.186013 0.18098 0.178906 0.178593 
0.178564 0.178572 0.134255 0.134255 0.159394 0.177219 0.18783 0.193748 0.197239 
0.199072 0.199658 0.199485 0.198959 0.198247 0.19737 0.196405 0.195341 0.194347 
0.193099 0.191444 0.189993 0.186895 0.181494 0.178998 0.178606 0.178563 0.178571 
0.133818 0.133818 0.158507 0.176324 0.18713 0.193314 0.197173 0.199443 0.200378 
0.20035 0.199798 0.199024 0.198151 0.197268 0.196333 0.195347 0.193974 0.192158 
0.190729 0.187813 0.182098 0.179115 0.178622 0.178562 0.178571 0.132966 0.132966 
0.157623 0.175517 0.186496 0.192868 0.196974 0.199595 0.200898 0.201097 0.200604 
0.199812 0.198964 0.198169 0.197348 0.196352 0.194847 0.192901 0.191528 0.188768 
0.182797 0.179267 0.178643 0.178563 0.17857 0.132462 0.132462 0.156865 0.174792 
0.185923 0.192417 0.196678 0.199548 0.201181 0.201683 0.201354 0.200639 0.19986 
0.199155 0.198384 0.197289 0.19563 0.193642 0.192435 0.189759 0.183598 0.179464 
0.178669 0.178564 0.17857 0.132068 0.132068 0.156139 0.174082 0.185347 0.191945 
0.196304 0.199357 0.201278 0.202121 0.202076 0.201544 0.200883 0.20021 0.199377 
0.198102 0.196392 0.194502 0.193364 0.190725 0.184513 0.17972 0.178703 0.178566 
0.178569 0.131385 0.131385 0.155282 0.173241 0.184656 0.191397 0.195871 0.199099 
0.20131 0.202527 0.202834 0.202541 0.201973 0.201231 0.20025 0.198844 0.197241 
0.195572 0.194258 0.191614 0.185534 0.180051 0.178747 0.178569 0.178569 0.131017 
0.131017 0.15441 0.172285 0.183817 0.190742 0.19539 0.198841 0.201366 0.202979 
0.203646 0.203551 0.202995 0.202107 0.201001 0.199622 0.198238 0.196768 0.195107 
0.192514 0.186642 0.180468 0.178806 0.178574 0.178569 0.130783 0.130783 0.153588 
0.171375 0.182967 0.190063 0.194906 0.198587 0.201416 0.203388 0.204382 0.204444 
0.203865 0.202871 0.201752 0.200541 0.199327 0.197856 0.195851 0.193544 0.18785 
0.180989 0.178882 0.178582 0.178569 0.130503 0.130503 0.152878 0.170633 0.182285 
0.189492 0.194459 0.198287 0.20132 0.203572 0.204872 0.20515 0.204656 0.203696 
0.202644 0.201557 0.200362 0.198742 0.196599 0.19465 0.189138 0.181635 0.178981 
0.178593 0.178569 0.129947 0.129947 0.152239 0.17003 0.181741 0.189008 0.194021 
0.197894 0.201019 0.203476 0.205106 0.205731 0.205492 0.20468 0.203657 0.202518 
0.201275 0.199575 0.19749 0.195721 0.190457 0.182419 0.179109 0.17861 0.178568 
0.128774 0.128774 0.151482 0.16941 0.181217 0.18851 0.19354 0.197431 0.200617 
0.203239 0.205204 0.206253 0.206348 0.205711 0.204673 0.203411 0.202142 0.200491 
0.19846 0.196725 0.191811 0.183354 0.179276 0.178634 0.178565 0.126763 0.126763 
0.150466 0.168552 0.180595 0.187975 0.193034 0.196961 0.200215 0.202977 0.205215 
0.206659 0.207101 0.206653 0.205665 0.204331 0.203021 0.201427 0.19944 0.197727 
0.193171 0.184457 0.179497 0.178668 0.178561 0.126126 0.126126 0.149678 0.167729 
0.17994 0.187449 0.192559 0.196519 0.199832 0.202696 0.205131 0.20691 0.207716 
0.20751 0.206635 0.205284 0.20388 0.20235 0.200511 0.198722 0.194464 0.185725 
0.179795 0.178716 0.178556 0.125962 0.125962 0.149119 0.166999 0.17929 0.186931 
0.192128 0.196135 0.199492 0.20243 0.205001 0.207044 0.208205 0.208268 0.207527 
0.206208 0.204784 0.203369 0.201667 0.199614 0.195719 0.187126 0.180193 0.178785 
0.178547 0.125255 0.125255 0.148398 0.166284 0.178654 0.186411 0.191719 0.195807 
0.199219 0.202204 0.204847 0.207043 0.208495 0.20886 0.208314 0.207155 0.205816 
0.204456 0.202703 0.200468 0.197043 0.188646 0.18071 0.178883 0.178533 0.125243 
0.125243 0.148028 0.165824 0.178181 0.185976 0.191343 0.195489 0.198933 0.201928 
0.204578 0.206845 0.208536 0.209294 0.20909 0.208182 0.206895 0.205429 0.203559 
0.201437 0.198371 0.190297 0.181367 0.179018 0.178514 0.125881 0.125881 0.148002 
0.165729 0.177923 0.185639 0.190975 0.195105 0.198531 0.201499 0.204144 0.206478 
0.20842 0.209646 0.209882 0.209215 0.207882 0.206312 0.204469 0.202487 0.19948 
0.192067 0.182195 0.179206 0.178486 0.125873 0.125873 0.147994 0.165718 0.177762 