# vtk DataFile Version 5.1
vtk output
ASCII
DATASET POLYDATA
POINTS 3 float
1.81747 1.62391 -1.09138 1.81747 1.63253 -1.1 1.82609 1.62391 -1.1 

POLYGONS 2 3
OFFSETS vtktypeint64
0 3 
CONNECTIVITY vtktypeint64
0 1 2 
POINT_DATA 3
FIELD FieldData 5
pressure 1 3 float
0.178573 0.178573 0.178574 
velocity_u 1 3 float
1 1 0.999999 
velocity_v 1 3 float
-3.96324e-07 -4.30486e-07 6.85214e-07 
velocity_w 1 3 float
5.25008e-07 5.59403e-07 -8.49443e-07 
temperature 1 3 float
0.178573 0.178573 0.178573 
