# vtk DataFile Version 5.1
vtk output
ASCII
DATASET STRUCTURED_GRID
DIMENSIONS 55 16 49
POINTS 43120 float
2.47 1.082 0.5 2.47 1.082 0.497 2.47 1.082 0.493548 
2.47 1.082 0.489579 2.47 1.082 0.485022 2.47 1.082 0.479796 
2.47 1.082 0.473812 2.47 1.082 0.466971 2.47 1.082 0.459165 
2.47 1.082 0.450279 2.47 1.082 0.440188 2.47 1.082 0.428762 
2.47 1.082 0.415865 2.47 1.082 0.401362 2.47 1.082 0.385118 
2.47 1.082 0.36701 2.47 1.082 0.346925 2.47 1.082 0.324774 
2.47 1.082 0.300497 2.47 1.082 0.274072 2.47 1.082 0.245523 
2.47 1.082 0.214926 2.47 1.082 0.182417 2.47 1.082 0.148191 
2.47 1.082 0.112505 2.47 1.082 0.075668 2.47 1.082 0.0380369 
2.47 1.082 -8.11114e-08 2.47 1.082 -0.038037 2.47 1.082 -0.0756682 
2.47 1.082 -0.112505 2.47 1.082 -0.148191 2.47 1.082 -0.182417 
2.47 1.082 -0.214926 2.47 1.082 -0.245523 2.47 1.082 -0.274072 
2.47 1.082 -0.300497 2.47 1.082 -0.324774 2.47 1.082 -0.346925 
2.47 1.082 -0.36701 2.47 1.082 -0.385118 2.47 1.082 -0.401362 
2.47 1.082 -0.415865 2.47 1.082 -0.428762 2.47 1.082 -0.440188 
2.47 1.082 -0.450279 2.47 1.082 -0.459165 2.47 1.082 -0.466971 
2.47 1.082 -0.473812 2.47 1.082 -0.479796 2.47 1.082 -0.485022 
2.47 1.082 -0.489579 2.47 1.082 -0.493548 2.47 1.082 -0.497 
2.47 1.082 -0.5 2.49 1.082 0.5 2.49 1.082 0.497 
2.49 1.082 0.493548 2.49 1.082 0.489579 2.49 1.082 0.485022 
2.49 1.082 0.479796 2.49 1.082 0.473812 2.49 1.082 0.466971 
2.49 1.082 0.459165 2.49 1.082 0.450279 2.49 1.082 0.440188 
2.49 1.082 0.428762 2.49 1.082 0.415865 2.49 1.082 0.401362 
2.49 1.082 0.385118 2.49 1.082 0.36701 2.49 1.082 0.346925 
2.49 1.082 0.324774 2.49 1.082 0.300497 2.49 1.082 0.274072 
2.49 1.082 0.245523 2.49 1.082 0.214926 2.49 1.082 0.182417 
2.49 1.082 0.148191 2.49 1.082 0.112505 2.49 1.082 0.075668 
2.49 1.082 0.0380369 2.49 1.082 -8.11114e-08 2.49 1.082 -0.038037 
2.49 1.082 -0.0756682 2.49 1.082 -0.112505 2.49 1.082 -0.148191 
2.49 1.082 -0.182417 2.49 1.082 -0.214926 2.49 1.082 -0.245523 
2.49 1.082 -0.274072 2.49 1.082 -0.300497 2.49 1.082 -0.324774 
2.49 1.082 -0.346925 2.49 1.082 -0.36701 2.49 1.082 -0.385118 
2.49 1.082 -0.401362 2.49 1.082 -0.415865 2.49 1.082 -0.428762 
2.49 1.082 -0.440188 2.49 1.082 -0.450279 2.49 1.082 -0.459165 
2.49 1.082 -0.466971 2.49 1.082 -0.473812 2.49 1.082 -0.479796 
2.49 1.082 -0.485022 2.49 1.082 -0.489579 2.49 1.082 -0.493548 
2.49 1.082 -0.497 2.49 1.082 -0.5 2.51028 1.082 0.5 
2.51028 1.082 0.497 2.51028 1.082 0.493548 2.51028 1.082 0.489579 
2.51028 1.082 0.485022 2.51028 1.082 0.479796 2.51028 1.082 0.473812 
2.51028 1.082 0.466971 2.51028 1.082 0.459165 2.51028 1.082 0.450279 
2.51028 1.082 0.440188 2.51028 1.082 0.428762 2.51028 1.082 0.415865 
2.51028 1.082 0.401362 2.51028 1.082 0.385118 2.51028 1.082 0.36701 
2.51028 1.082 0.346925 2.51028 1.082 0.324774 2.51028 1.082 0.300497 
2.51028 1.082 0.274072 2.51028 1.082 0.245523 2.51028 1.082 0.214926 
2.51028 1.082 0.182417 2.51028 1.082 0.148191 2.51028 1.082 0.112505 
2.51028 1.082 0.075668 2.51028 1.082 0.0380369 2.51028 1.082 -8.11114e-08 
2.51028 1.082 -0.038037 2.51028 1.082 -0.0756682 2.51028 1.082 -0.112505 
2.51028 1.082 -0.148191 2.51028 1.082 -0.182417 2.51028 1.082 -0.214926 
2.51028 1.082 -0.245523 2.51028 1.082 -0.274072 2.51028 1.082 -0.300497 
2.51028 1.082 -0.324774 2.51028 1.082 -0.346925 2.51028 1.082 -0.36701 
2.51028 1.082 -0.385118 2.51028 1.082 -0.401362 2.51028 1.082 -0.415865 
2.51028 1.082 -0.428762 2.51028 1.082 -0.440188 2.51028 1.082 -0.450279 
2.51028 1.082 -0.459165 2.51028 1.082 -0.466971 2.51028 1.082 -0.473812 
2.51028 1.082 -0.479796 2.51028 1.082 -0.485022 2.51028 1.082 -0.489579 
2.51028 1.082 -0.493548 2.51028 1.082 -0.497 2.51028 1.082 -0.5 
2.5308 1.082 0.5 2.5308 1.082 0.497 2.5308 1.082 0.493548 
2.5308 1.082 0.489579 2.5308 1.082 0.485022 2.5308 1.082 0.479796 
2.5308 1.082 0.473812 2.5308 1.082 0.466971 2.5308 1.082 0.459165 
2.5308 1.082 0.450279 2.5308 1.082 0.440188 2.5308 1.082 0.428762 
2.5308 1.082 0.415865 2.5308 1.082 0.401362 2.5308 1.082 0.385118 
2.5308 1.082 0.36701 2.5308 1.082 0.346925 2.5308 1.082 0.324774 
2.5308 1.082 0.300497 2.5308 1.082 0.274072 2.5308 1.082 0.245523 
2.5308 1.082 0.214926 2.5308 1.082 0.182417 2.5308 1.082 0.148191 
2.5308 1.082 0.112505 2.5308 1.082 0.075668 2.5308 1.082 0.0380369 
2.5308 1.082 -8.11114e-08 2.5308 1.082 -0.038037 2.5308 1.082 -0.0756682 
2.5308 1.082 -0.112505 2.5308 1.082 -0.148191 2.5308 1.082 -0.182417 
2.5308 1.082 -0.214926 2.5308 1.082 -0.245523 2.5308 1.082 -0.274072 
2.5308 1.082 -0.300497 2.5308 1.082 -0.324774 2.5308 1.082 -0.346925 
2.5308 1.082 -0.36701 2.5308 1.082 -0.385118 2.5308 1.082 -0.401362 
2.5308 1.082 -0.415865 2.5308 1.082 -0.428762 2.5308 1.082 -0.440188 
2.5308 1.082 -0.450279 2.5308 1.082 -0.459165 2.5308 1.082 -0.466971 
2.5308 1.082 -0.473812 2.5308 1.082 -0.479796 2.5308 1.082 -0.485022 
2.5308 1.082 -0.489579 2.5308 1.082 -0.493548 2.5308 1.082 -0.497 
2.5308 1.082 -0.5 2.55152 1.082 0.5 2.55152 1.082 0.497 
2.55152 1.082 0.493548 2.55152 1.082 0.489579 2.55152 1.082 0.485022 
2.55152 1.082 0.479796 2.55152 1.082 0.473812 2.55152 1.082 0.466971 
2.55152 1.082 0.459165 2.55152 1.082 0.450279 2.55152 1.082 0.440188 
2.55152 1.082 0.428762 2.55152 1.082 0.415865 2.55152 1.082 0.401362 
2.55152 1.082 0.385118 2.55152 1.082 0.36701 2.55152 1.082 0.346925 
2.55152 1.082 0.324774 2.55152 1.082 0.300497 2.55152 1.082 0.274072 
2.55152 1.082 0.245523 2.55152 1.082 0.214926 2.55152 1.082 0.182417 
2.55152 1.082 0.148191 2.55152 1.082 0.112505 2.55152 1.082 0.075668 
2.55152 1.082 0.0380369 2.55152 1.082 -8.11114e-08 2.55152 1.082 -0.038037 
2.55152 1.082 -0.0756682 2.55152 1.082 -0.112505 2.55152 1.082 -0.148191 
2.55152 1.082 -0.182417 2.55152 1.082 -0.214926 2.55152 1.082 -0.245523 
2.55152 1.082 -0.274072 2.55152 1.082 -0.300497 2.55152 1.082 -0.324774 
2.55152 1.082 -0.346925 2.55152 1.082 -0.36701 2.55152 1.082 -0.385118 
2.55152 1.082 -0.401362 2.55152 1.082 -0.415865 2.55152 1.082 -0.428762 
2.55152 1.082 -0.440188 2.55152 1.082 -0.450279 2.55152 1.082 -0.459165 
2.55152 1.082 -0.466971 2.55152 1.082 -0.473812 2.55152 1.082 -0.479796 
2.55152 1.082 -0.485022 2.55152 1.082 -0.489579 2.55152 1.082 -0.493548 
2.55152 1.082 -0.497 2.55152 1.082 -0.5 2.5724 1.082 0.5 
2.5724 1.082 0.497 2.5724 1.082 0.493548 2.5724 1.082 0.489579 
2.5724 1.082 0.485022 2.5724 1.082 0.479796 2.5724 1.082 0.473812 
2.5724 1.082 0.466971 2.5724 1.082 0.459165 2.5724 1.082 0.450279 
2.5724 1.082 0.440188 2.5724 1.082 0.428762 2.5724 1.082 0.415865 
2.5724 1.082 0.401362 2.5724 1.082 0.385118 2.5724 1.082 0.36701 
2.5724 1.082 0.346925 2.5724 1.082 0.324774 2.5724 1.082 0.300497 
2.5724 1.082 0.274072 2.5724 1.082 0.245523 2.5724 1.082 0.214926 
2.5724 1.082 0.182417 2.5724 1.082 0.148191 2.5724 1.082 0.112505 
2.5724 1.082 0.075668 2.5724 1.082 0.0380369 2.5724 1.082 -8.11114e-08 
2.5724 1.082 -0.038037 2.5724 1.082 -0.0756682 2.5724 1.082 -0.112505 
2.5724 1.082 -0.148191 2.5724 1.082 -0.182417 2.5724 1.082 -0.214926 
2.5724 1.082 -0.245523 2.5724 1.082 -0.274072 2.5724 1.082 -0.300497 
2.5724 1.082 -0.324774 2.5724 1.082 -0.346925 2.5724 1.082 -0.36701 
2.5724 1.082 -0.385118 2.5724 1.082 -0.401362 2.5724 1.082 -0.415865 
2.5724 1.082 -0.428762 2.5724 1.082 -0.440188 2.5724 1.082 -0.450279 
2.5724 1.082 -0.459165 2.5724 1.082 -0.466971 2.5724 1.082 -0.473812 
2.5724 1.082 -0.479796 2.5724 1.082 -0.485022 2.5724 1.082 -0.489579 
2.5724 1.082 -0.493548 2.5724 1.082 -0.497 2.5724 1.082 -0.5 
2.5934 1.082 0.5 2.5934 1.082 0.497 2.5934 1.082 0.493548 
2.5934 1.082 0.489579 2.5934 1.082 0.485022 2.5934 1.082 0.479796 
2.5934 1.082 0.473812 2.5934 1.082 0.466971 2.5934 1.082 0.459165 
2.5934 1.082 0.450279 2.5934 1.082 0.440188 2.5934 1.082 0.428762 
2.5934 1.082 0.415865 2.5934 1.082 0.401362 2.5934 1.082 0.385118 
2.5934 1.082 0.36701 2.5934 1.082 0.346925 2.5934 1.082 0.324774 
2.5934 1.082 0.300497 2.5934 1.082 0.274072 2.5934 1.082 0.245523 
2.5934 1.082 0.214926 2.5934 1.082 0.182417 2.5934 1.082 0.148191 
2.5934 1.082 0.112505 2.5934 1.082 0.075668 2.5934 1.082 0.0380369 
2.5934 1.082 -8.11114e-08 2.5934 1.082 -0.038037 2.5934 1.082 -0.0756682 
2.5934 1.082 -0.112505 2.5934 1.082 -0.148191 2.5934 1.082 -0.182417 
2.5934 1.082 -0.214926 2.5934 1.082 -0.245523 2.5934 1.082 -0.274072 
2.5934 1.082 -0.300497 2.5934 1.082 -0.324774 2.5934 1.082 -0.346925 
2.5934 1.082 -0.36701 2.5934 1.082 -0.385118 2.5934 1.082 -0.401362 
2.5934 1.082 -0.415865 2.5934 1.082 -0.428762 2.5934 1.082 -0.440188 
2.5934 1.082 -0.450279 2.5934 1.082 -0.459165 2.5934 1.082 -0.466971 
2.5934 1.082 -0.473812 2.5934 1.082 -0.479796 2.5934 1.082 -0.485022 
2.5934 1.082 -0.489579 2.5934 1.082 -0.493548 2.5934 1.082 -0.497 
2.5934 1.082 -0.5 2.61446 1.082 0.5 2.61446 1.082 0.497 
2.61446 1.082 0.493548 2.61446 1.082 0.489579 2.61446 1.082 0.485022 
2.61446 1.082 0.479796 2.61446 1.082 0.473812 2.61446 1.082 0.466971 
2.61446 1.082 0.459165 2.61446 1.082 0.450279 2.61446 1.082 0.440188 
2.61446 1.082 0.428762 2.61446 1.082 0.415865 2.61446 1.082 0.401362 
2.61446 1.082 0.385118 2.61446 1.082 0.36701 2.61446 1.082 0.346925 
2.61446 1.082 0.324774 2.61446 1.082 0.300497 2.61446 1.082 0.274072 
2.61446 1.082 0.245523 2.61446 1.082 0.214926 2.61446 1.082 0.182417 
2.61446 1.082 0.148191 2.61446 1.082 0.112505 2.61446 1.082 0.075668 
2.61446 1.082 0.0380369 2.61446 1.082 -8.11114e-08 2.61446 1.082 -0.038037 
2.61446 1.082 -0.0756682 2.61446 1.082 -0.112505 2.61446 1.082 -0.148191 
2.61446 1.082 -0.182417 2.61446 1.082 -0.214926 2.61446 1.082 -0.245523 
2.61446 1.082 -0.274072 2.61446 1.082 -0.300497 2.61446 1.082 -0.324774 
2.61446 1.082 -0.346925 2.61446 1.082 -0.36701 2.61446 1.082 -0.385118 
2.61446 1.082 -0.401362 2.61446 1.082 -0.415865 2.61446 1.082 -0.428762 
2.61446 1.082 -0.440188 2.61446 1.082 -0.450279 2.61446 1.082 -0.459165 
2.61446 1.082 -0.466971 2.61446 1.082 -0.473812 2.61446 1.082 -0.479796 
2.61446 1.082 -0.485022 2.61446 1.082 -0.489579 2.61446 1.082 -0.493548 
[...]
POINT_DATA 43120
FIELD FieldData 5
pressure 1 43120 float
0.178573 0.451798 0.452031 0.451956 0.451958 0.451845 0.4518 0.451662 0.451593 
0.451444 0.451357 0.451188 0.451044 0.45085 0.450636 0.450388 0.45013 0.449794 
0.449474 0.44912 0.448793 0.448487 0.448191 0.447978 0.447764 0.447656 0.447563 
0.447542 0.447564 0.447651 0.447775 0.447974 0.448176 0.44846 0.448737 0.449062 
0.449395 0.449727 0.450094 0.450404 0.450703 0.450949 0.451171 0.451363 0.451545 
0.451666 0.45182 0.451905 0.452041 0.452113 0.452227 0.452272 0.452346 0.452358 
0.452186 0.178573 0.437684 0.437886 0.43785 0.437848 0.437787 0.437749 0.437667 
0.437595 0.437478 0.437359 0.437207 0.437069 0.436911 0.436747 0.436526 0.436272 
0.435927 0.435543 0.435124 0.434784 0.434495 0.434295 0.434069 0.433855 0.433636 
0.433483 0.433397 0.433438 0.43357 0.433805 0.434044 0.434303 0.434512 0.434752 
0.435014 0.435376 0.435772 0.436183 0.436513 0.436792 0.437 0.437188 0.437336 
0.437497 0.437639 0.437778 0.43788 0.437974 0.43804 0.438101 0.438143 0.43817 
0.438175 0.438001 0.178573 0.423499 0.423661 0.423636 0.42363 0.423594 0.423566 
0.423522 0.423469 0.423397 0.42329 0.42316 0.423005 0.422861 0.422706 0.422528 
0.422307 0.422038 0.421722 0.42135 0.420995 0.420688 0.420496 0.420322 0.420153 
0.419962 0.419814 0.419733 0.419776 0.419912 0.420126 0.420322 0.420509 0.420666 
0.42089 0.421187 0.42156 0.421927 0.422249 0.422515 0.422739 0.422924 0.423081 
0.423241 0.423396 0.423544 0.423649 0.423736 0.42379 0.423843 0.423875 0.423913 
0.423926 0.423942 0.423795 0.178573 0.409561 0.409711 0.40967 0.409671 0.409617 
0.409593 0.409536 0.409498 0.409433 0.409371 0.409262 0.409143 0.408995 0.40887 
0.408722 0.408523 0.408272 0.408004 0.407738 0.407437 0.407144 0.406884 0.406731 
0.406568 0.406477 0.406342 0.406331 0.406332 0.406465 0.40657 0.40673 0.406839 
0.407033 0.407272 0.407593 0.407892 0.408176 0.408442 0.408708 0.40892 0.409074 
0.409226 0.40937 0.409522 0.409621 0.409712 0.409769 0.409831 0.409878 0.409928 
0.409963 0.409991 0.410006 0.409888 0.178573 0.395865 0.395986 0.395959 0.39595 
0.395906 0.395868 0.395807 0.395754 0.395691 0.39563 0.395563 0.395479 0.395362 
0.395268 0.395167 0.395059 0.394803 0.39455 0.39425 0.394066 0.393753 0.393555 
0.393276 0.393204 0.393047 0.39307 0.392972 0.393076 0.393049 0.393199 0.393215 
0.393423 0.393573 0.393899 0.394116 0.394405 0.394643 0.394976 0.395216 0.395384 
0.395488 0.395619 0.395745 0.395846 0.395929 0.395999 0.396068 0.39613 0.396191 
0.396233 0.396278 0.396288 0.396311 0.3962 0.178573 0.382416 0.382519 0.382503 
0.382498 0.382469 0.382437 0.382395 0.382344 0.382293 0.382233 0.382177 0.382113 
0.382047 0.381933 0.381895 0.381829 0.381748 0.381442 0.381198 0.380886 0.380737 
0.380394 0.380229 0.379926 0.379948 0.379789 0.379914 0.379795 0.379939 0.379857 
0.380072 0.380163 0.380525 0.380716 0.381027 0.381228 0.381605 0.381859 0.382049 
0.382099 0.382211 0.382313 0.382422 0.382491 0.382562 0.382626 0.382686 0.382731 
0.38278 0.382809 0.382839 0.382846 0.382859 0.382769 0.178573 0.369361 0.36945 
0.369438 0.369447 0.369429 0.369426 0.369396 0.369384 0.369349 0.369315 0.369255 
0.369217 0.369147 0.369084 0.368973 0.368993 0.368957 0.368885 0.368538 0.368327 
0.367986 0.367849 0.367455 0.367318 0.367036 0.367115 0.366969 0.367107 0.366973 
0.367164 0.367194 0.367574 0.367766 0.368134 0.368308 0.368709 0.36896 0.369177 
0.369168 0.369253 0.369336 0.369461 0.369517 0.369589 0.369645 0.369692 0.369717 
0.369744 0.369759 0.369775 0.369784 0.369784 0.369784 0.369715 0.178573 0.35681 
0.356873 0.356882 0.356886 0.356895 0.356893 0.356898 0.356893 0.356893 0.35688 
0.356849 0.356797 0.356779 0.356712 0.356652 0.356562 0.356644 0.35663 0.356537 
0.356192 0.35599 0.355681 0.355518 0.355138 0.35503 0.354801 0.354884 0.354756 
0.354897 0.354893 0.355222 0.355421 0.355784 0.355969 0.356338 0.356598 0.356835 
0.356801 0.356827 0.356881 0.357006 0.357053 0.35711 0.357158 0.357199 0.357214 
0.357224 0.35722 0.35723 0.35722 0.357227 0.357208 0.357213 0.357156 0.178573 
0.344734 0.344791 0.344783 0.344809 0.344802 0.344822 0.344815 0.344831 0.344833 
0.34484 0.344831 0.344808 0.344782 0.344799 0.344747 0.344691 0.344649 0.344779 
0.34475 0.344629 0.344315 0.344172 0.343911 0.343743 0.343424 0.343324 0.343157 
0.343229 0.343215 0.343467 0.343653 0.343979 0.344139 0.344434 0.344672 0.344931 
0.344919 0.344894 0.3449 0.345016 0.345044 0.345068 0.345087 0.345124 0.345137 
0.34514 0.345136 0.34514 0.345131 0.345136 0.345123 0.345118 0.345107 0.345075 
0.178573 0.333247 0.333266 0.333277 0.333277 0.333292 0.333278 0.333288 0.333276 
0.33328 0.333275 0.33328 0.333267 0.333266 0.333282 0.333331 0.333274 0.333227 
0.333253 0.333383 0.333322 0.333163 0.332951 0.332852 0.332659 0.332488 0.332237 
0.332157 0.332102 0.332256 0.332427 0.332693 0.33284 0.333028 0.333213 0.333462 
0.333511 0.333467 0.333423 0.333524 0.333554 0.333544 0.333516 0.333541 0.333548 
0.333558 0.333559 0.333577 0.333568 0.33359 0.333573 0.333591 0.33356 0.333569 
0.333535 0.178573 0.322332 0.322365 0.322348 0.322386 0.322359 0.322383 0.32235 
0.32236 0.322328 0.322322 0.322298 0.322306 0.322283 0.322317 0.322367 0.322421 
0.322333 0.322335 0.322406 0.3225 0.322374 0.322243 0.322106 0.322054 0.321889 
0.321742 0.321576 0.321606 0.321699 0.321923 0.322048 0.322177 0.322279 0.3225 
0.322606 0.322601 0.322507 0.322572 0.322622 0.322615 0.32254 0.322542 0.322537 
0.322562 0.322564 0.322602 0.322602 0.322635 0.322623 0.322652 0.322627 0.322638 
0.322613 0.322602 0.178573 0.312081 0.31208 0.312112 0.312101 0.312139 0.312111 
0.312138 0.312103 0.312115 0.312069 0.312073 0.312043 0.312068 0.312054 0.312147 
0.312223 0.312256 0.312175 0.312246 0.31233 0.312358 0.312206 0.312133 0.312053 
0.312039 0.311894 0.311837 0.311801 0.311943 0.312032 0.312138 0.312163 0.312322 
0.312449 0.312514 0.312403 0.312408 0.312439 0.312468 0.312347 0.31231 0.312273 
0.312301 0.312279 0.312329 0.312321 0.312362 0.312337 0.312372 0.312334 0.312355 
0.312308 0.312313 0.312281 0.178573 0.302166 0.302196 0.302191 0.302246 0.302232 
0.302284 0.302256 0.302297 0.302254 0.302275 0.302215 0.302249 0.30223 0.302288 
0.302313 0.302469 0.302523 0.302522 0.302469 0.302592 0.302617 0.302579 0.302426 
0.302413 0.30238 0.302389 0.302319 0.302366 0.302388 0.302466 0.302446 0.30254 
0.302643 0.302786 0.302723 0.302688 0.302682 0.302751 0.302638 0.302556 0.302462 
0.302474 0.302413 0.302458 0.302433 0.302489 0.302451 0.302484 0.302436 0.302456 
0.302402 0.302408 0.302364 0.302365 0.178573 0.292795 0.292787 0.292826 0.292826 
0.292888 0.29288 0.292948 0.292928 0.292997 0.292954 0.293008 0.292961 0.293048 
0.293045 0.293155 0.29323 0.293417 0.293401 0.293406 0.293422 0.293565 0.293539 
0.293493 0.293404 0.293478 0.293491 0.293567 0.293544 0.29358 0.293505 0.293526 
0.293547 0.293694 0.293675 0.293631 0.293548 0.293627 0.293553 0.293467 0.293299 
0.293287 0.29318 0.2932 0.29313 0.293185 0.293116 0.293146 0.293071 0.293085 
0.293017 0.29302 0.292964 0.292961 0.292935 0.178573 0.283467 0.283485 0.283484 
0.283535 0.28354 0.283605 0.283598 0.283679 0.28365 0.283739 0.283693 0.283784 
0.28376 0.283874 0.283856 0.284 0.284081 0.284219 0.284116 0.284173 0.28419 
0.284304 0.284158 0.284154 0.284092 0.284258 0.28426 0.284363 0.284237 0.284251 
0.284164 0.284337 0.284356 0.284405 0.28426 0.284338 0.284303 0.284292 0.284082 
0.284066 0.283949 0.283961 0.283849 0.283894 0.283796 0.283839 0.283748 0.283768 
0.283693 0.283696 0.283636 0.283632 0.283591 0.283596 0.178573 0.275013 0.275016 
0.275042 0.275043 0.275092 0.275088 0.275155 0.27513 0.27521 0.275148 0.27523 
0.275166 0.27527 0.275252 0.275359 0.275306 0.275445 0.275448 0.275487 0.27538 
0.275502 0.275539 0.275615 0.2755 0.275593 0.275622 0.275806 0.275754 0.275764 
0.275611 0.27568 0.27567 0.275752 0.275605 0.275615 0.275582 0.275664 0.275512 
0.275515 0.275412 0.275445 0.275314 0.275356 0.275265 0.275337 0.275255 0.275301 
0.275225 0.275237 0.275178 0.275177 0.275135 0.275133 0.275108 0.451798 0.451798 
0.452031 0.451956 0.451958 0.451845 0.4518 0.451662 0.451593 0.451444 0.451357 
0.451188 0.451044 0.45085 0.450636 0.450388 0.45013 0.449794 0.449474 0.44912 
0.448793 0.448487 0.448191 0.447978 0.447764 0.447656 0.447563 0.447542 0.447564 
0.447651 0.447775 0.447974 0.448176 0.44846 0.448737 0.449062 0.449395 0.449727 
0.450094 0.450404 0.450703 0.450949 0.451171 0.451363 0.451545 0.451666 0.45182 
0.451905 0.452041 0.452113 0.452227 0.452272 0.452346 0.452358 0.452186 0.437684 
0.437684 0.437886 0.43785 0.437848 0.437787 0.437749 0.437667 0.437595 0.437478 
0.437359 0.437207 0.437069 0.436911 0.436747 0.436526 0.436272 0.435927 0.435543 
0.435124 0.434784 0.434495 0.434295 0.434069 0.433855 0.433636 0.433483 0.433397 
0.433438 0.43357 0.433805 0.434044 0.434303 0.434512 0.434752 0.435014 0.435376 
0.435772 0.436183 0.436513 0.436792 0.437 0.437188 0.437336 0.437497 0.437639 
0.437778 0.43788 0.437974 0.43804 0.438101 0.438143 0.43817 0.438175 0.438001 
0.423499 0.423499 0.423661 0.423636 0.42363 0.423594 0.423566 0.423522 0.423469 
0.423397 0.42329 0.42316 0.423005 0.422861 0.422706 0.422528 0.422307 0.422038 
0.421722 0.42135 0.420995 0.420688 0.420496 0.420322 0.420153 0.419962 0.419814 
0.419733 0.419776 0.419912 0.420126 0.420322 0.420509 0.420666 0.42089 0.421187 
0.42156 0.421927 0.422249 0.422515 0.422739 0.422924 0.423081 0.423241 0.423396 
0.423544 0.423649 0.423736 0.42379 0.423843 0.423875 0.423913 0.423926 0.423942 
0.423795 0.409561 0.409561 0.409711 0.40967 0.409671 0.409617 0.409593 0.409536 
0.409498 0.409433 0.409371 0.409262 0.409143 0.408995 0.40887 0.408722 0.408523 
0.408272 0.408004 0.407738 0.407437 0.407144 0.406884 0.406731 0.406568 0.406477 
0.406342 0.406331 0.406332 0.406465 0.40657 0.40673 0.406839 0.407033 0.407272 
0.407593 0.407892 0.408176 0.408442 0.408708 0.40892 0.409074 0.409226 0.40937 
0.409522 0.409621 0.409712 0.409769 0.409831 0.409878 0.409928 0.409963 0.409991 
0.410006 0.409888 0.395865 0.395865 0.395986 0.395959 0.39595 0.395906 0.395868 
0.395807 0.395754 0.395691 0.39563 0.395563 0.395479 0.395362 0.395268 0.395167 
0.395059 0.394803 0.39455 0.39425 0.394066 0.393753 0.393555 0.393276 0.393204 
0.393047 0.39307 0.392972 0.393076 0.393049 0.393199 0.393215 0.393423 0.393573 
0.393899 0.394116 0.394405 0.394643 0.394976 0.395216 0.395384 0.395488 0.395619 
0.395745 0.395846 0.395929 0.395999 0.396068 0.39613 0.396191 0.396233 0.396278 
0.396288 0.396311 0.3962 0.382416 0.382416 0.382519 0.382503 0.382498 0.382469 
0.382437 0.382395 0.382344 0.382293 0.382233 0.382177 0.382113 0.382047 0.381933 
0.381895 0.381829 0.381748 0.381442 0.381198 0.380886 0.380737 0.380394 0.380229 
0.379926 0.379948 0.379789 0.379914 0.379795 0.379939 0.379857 0.380072 0.380163 
0.380525 0.380716 0.381027 0.381228 0.381605 0.381859 0.382049 0.382099 0.382211 
0.382313 0.382422 0.382491 0.382562 0.382626 0.382686 0.382731 0.38278 0.382809 
0.382839 0.382846 0.382859 0.382769 0.369361 0.369361 0.36945 0.369438 0.369447 
0.369429 0.369426 0.369396 0.369384 0.369349 0.369315 0.369255 0.369217 0.369147 
0.369084 0.368973 0.368993 0.368957 0.368885 0.368538 0.368327 0.367986 0.367849 
0.367455 0.367318 0.367036 0.367115 0.366969 0.367107 0.366973 0.367164 0.367194 
0.367574 0.367766 0.368134 0.368308 0.368709 0.36896 0.369177 0.369168 0.369253 
0.369336 0.369461 0.369517 0.369589 0.369645 0.369692 0.369717 0.369744 0.369759 
0.369775 0.369784 0.369784 0.369784 0.369715 0.35681 0.35681 0.356873 0.356882 
0.356886 0.356895 0.356893 0.356898 0.356893 0.356893 0.35688 0.356849 0.356797 
0.356779 0.356712 0.356652 0.356562 0.356644 0.35663 0.356537 0.356192 0.35599 
0.355681 0.355518 0.355138 0.35503 0.354801 0.354884 0.354756 0.354897 0.354893 
0.355222 0.355421 0.355784 0.355969 0.356338 0.356598 0.356835 0.356801 0.356827 
0.356881 0.357006 0.357053 0.35711 0.357158 0.357199 0.357214 0.357224 0.35722 
0.35723 0.35722 0.357227 0.357208 0.357213 0.357156 0.344734 0.344734 0.344791 
0.344783 0.344809 0.344802 0.344822 0.344815 0.344831 0.344833 0.34484 0.344831 
0.344808 0.344782 0.344799 0.344747 0.344691 0.344649 0.344779 0.34475 0.344629 
0.344315 0.344172 0.343911 0.343743 0.343424 0.343324 0.343157 0.343229 0.343215 
0.343467 0.343653 0.343979 0.344139 0.344434 0.344672 0.344931 0.344919 0.344894 
0.3449 0.345016 0.345044 0.345068 0.345087 0.345124 0.345137 0.34514 0.345136 
0.34514 0.345131 0.345136 0.345123 0.345118 0.345107 0.345075 0.333247 0.333247 
0.333266 0.333277 0.333277 0.333292 0.333278 0.333288 0.333276 0.33328 0.333275 
0.33328 0.333267 0.333266 0.333282 0.333331 0.333274 0.333227 0.333253 0.333383 
0.333322 0.333163 0.332951 0.332852 0.332659 0.332488 0.332237 0.332157 0.332102 
0.332256 0.332427 0.332693 0.33284 0.333028 0.333213 0.333462 0.333511 0.333467 
0.333423 0.333524 0.333554 0.333544 0.333516 0.333541 0.333548 0.333558 0.333559 
0.333577 0.333568 0.33359 0.333573 0.333591 0.33356 0.333569 0.333535 0.322332 
0.322332 0.322365 0.322348 0.322386 0.322359 0.322383 0.32235 0.32236 0.322328 
0.322322 0.322298 0.322306 0.322283 0.322317 0.322367 0.322421 0.322333 0.322335 
0.322406 0.3225 0.322374 0.322243 0.322106 0.322054 0.321889 0.321742 0.321576 
0.321606 0.321699 0.321923 0.322048 0.322177 0.322279 0.3225 0.322606 0.322601 
0.322507 0.322572 0.322622 0.322615 0.32254 0.322542 0.322537 0.322562 0.322564 
0.322602 0.322602 0.322635 0.322623 0.322652 0.322627 0.322638 0.322613 0.322602 
0.312081 0.312081 0.31208 0.312112 0.312101 0.312139 0.312111 0.312138 0.312103 
0.312115 0.312069 0.312073 0.312043 0.312068 0.312054 0.312147 0.312223 0.312256 
0.312175 0.312246 0.31233 0.312358 0.312206 0.312133 0.312053 0.312039 0.311894 
0.311837 0.311801 0.311943 0.312032 0.312138 0.312163 0.312322 0.312449 0.312514 
0.312403 0.312408 0.312439 0.312468 0.312347 0.31231 0.312273 0.312301 0.312279 
0.312329 0.312321 0.312362 0.312337 0.312372 0.312334 0.312355 0.312308 0.312313 
0.312281 0.302166 0.302166 0.302196 0.302191 0.302246 0.302232 0.302284 0.302256 
0.302297 0.302254 0.302275 0.302215 0.302249 0.30223 0.302288 0.302313 0.302469 
0.302523 0.302522 0.302469 0.302592 0.302617 0.302579 0.302426 0.302413 0.30238 
0.302389 0.302319 0.302366 0.302388 0.302466 0.302446 0.30254 0.302643 0.302786 
0.302723 0.302688 0.302682 0.302751 0.302638 0.302556 0.302462 0.302474 0.302413 
0.302458 0.302433 0.302489 0.302451 0.302484 0.302436 0.302456 0.302402 0.302408 
0.302364 0.302365 0.292795 0.292795 0.292787 0.292826 0.292826 0.292888 0.29288 
0.292948 0.292928 0.292997 0.292954 0.293008 0.292961 0.293048 0.293045 0.293155 
0.29323 0.293417 0.293401 0.293406 0.293422 0.293565 0.293539 0.293493 0.293404 
0.293478 0.293491 0.293567 0.293544 0.29358 0.293505 0.293526 0.293547 0.293694 
0.293675 0.293631 0.293548 0.293627 0.293553 0.293467 0.293299 0.293287 0.29318 
0.2932 0.29313 0.293185 0.293116 0.293146 0.293071 0.293085 0.293017 0.29302 
0.292964 0.292961 0.292935 0.283467 0.283467 0.283485 0.283484 0.283535 0.28354 
0.283605 0.283598 0.283679 0.28365 0.283739 0.283693 0.283784 0.28376 0.283874 
0.283856 0.284 0.284081 0.284219 0.284116 0.284173 0.28419 0.284304 0.284158 
0.284154 0.284092 0.284258 0.28426 0.284363 0.284237 0.284251 0.284164 0.284337 
0.284356 0.284405 0.28426 0.284338 0.284303 0.284292 0.284082 0.284066 0.283949 
0.283961 0.283849 0.283894 0.283796 0.283839 0.283748 0.283768 0.283693 0.283696 
0.283636 0.283632 0.283591 0.283596 0.275013 0.275013 0.275016 0.275042 0.275043 
0.275092 0.275088 0.275155 0.27513 0.27521 0.275148 0.27523 0.275166 0.27527 
0.275252 0.275359 0.275306 0.275445 0.275448 0.275487 0.27538 0.275502 0.275539 
0.275615 0.2755 0.275593 0.275622 0.275806 0.275754 0.275764 0.275611 0.27568 
0.27567 0.275752 0.275605 0.275615 0.275582 0.275664 0.275512 0.275515 0.275412 
0.275445 0.275314 0.275356 0.275265 0.275337 0.275255 0.275301 0.275225 0.275237 
0.275178 0.275177 0.275135 0.275133 0.275108 0.451296 0.451296 0.451523 0.451502 
0.451461 0.451398 0.451318 0.451223 0.451126 0.451012 0.450907 0.450786 0.450653 
0.450476 0.450271 0.449997 0.449714 0.44937 0.449047 0.448704 0.448409 0.448084 
0.447818 0.447564 0.447362 0.447229 0.447142 0.447111 0.447141 0.447221 0.447362 
0.447551 0.447788 0.448053 0.448363 0.448654 0.448984 0.449301 0.449663 0.449989 
0.450315 0.45057 0.450804 0.450976 0.451123 0.451241 0.45136 0.451464 0.451566 
0.451666 0.451737 0.451814 0.451839 0.45187 0.451641 0.437072 0.437072 0.4373 
0.437306 0.437284 0.437251 0.43719 0.437129 0.437035 0.436941 0.436813 0.436696 
0.436563 0.436437 0.436257 0.436044 0.435756 0.43541 0.435007 0.434601 0.434257 
0.43398 0.433765 0.433539 0.433307 0.433092 0.432926 0.432847 0.432879 0.433021 
0.433249 0.433505 0.433764 0.433993 0.434228 0.434496 0.43484 0.435244 0.43565 
0.436007 0.436288 0.436523 0.436691 0.43684 0.436962 0.437102 0.437214 0.437332 
0.437407 0.437497 0.437534 0.437597 0.437593 0.437609 0.437375 0.422885 0.422885 
0.423077 0.423074 0.423068 0.423042 0.42301 0.422968 0.422908 0.422842 0.42274 
0.42263 0.422492 0.422363 0.422201 0.422017 0.42177 0.421501 0.421169 0.420809 
0.420441 0.420148 0.419937 0.419772 0.419578 0.419402 0.419229 0.419168 0.419189 
0.419349 0.419545 0.419766 0.419943 0.420125 0.420338 0.42065 0.421008 0.421387 
0.4217 0.421986 0.422216 0.422421 0.422576 0.422726 0.422857 0.422991 0.423084 
0.423173 0.423225 0.423285 0.423311 0.423351 0.423354 0.423367 0.423183 0.408962 
0.408962 0.409117 0.40911 0.409093 0.409066 0.409023 0.408982 0.408927 0.408877 
0.408807 0.40873 0.408613 0.408494 0.408354 0.408197 0.40797 0.407708 0.407441 
0.407173 0.406882 0.406571 0.406323 0.406139 0.405993 0.405862 0.405753 0.405706 
0.405741 0.405847 0.405992 0.406131 0.406276 0.406455 0.406718 0.407031 0.407338 
0.407614 0.407879 0.408159 0.408386 0.408568 0.408708 0.408854 0.408969 0.409069 
0.409137 0.409209 0.409256 0.409322 0.40935 0.409404 0.409403 0.409434 0.409274 
0.395266 0.395266 0.395406 0.395391 0.395383 0.395346 0.3953 0.395246 0.395178 
0.395127 0.395062 0.395016 0.394941 0.394851 0.394744 0.394651 0.394493 0.394249 
0.393954 0.393706 0.393475 0.39321 0.392932 0.392705 0.392546 0.392461 0.392396 
0.392381 0.3924 0.392463 0.392537 0.392641 0.392789 0.393023 0.393306 0.39358 
0.393818 0.39409 0.39439 0.394676 0.394845 0.39498 0.395094 0.395214 0.395291 
0.395365 0.395421 0.3955 0.395555 0.395626 0.395665 0.39571 0.395718 0.395738 
0.395611 0.381838 0.381838 0.38195 0.381943 0.381937 0.381908 0.381877 0.381824 
0.381776 0.381713 0.381665 0.381617 0.38158 0.38151 0.381423 0.381352 0.381303 
0.381161 0.380899 0.380592 0.380355 0.380114 0.37985 0.379563 0.379357 0.379252 
0.379211 0.379211 0.379217 0.379241 0.379285 0.379395 0.379609 0.379892 0.380187 
0.380425 0.380692 0.381007 0.381315 0.381486 0.381582 0.381677 0.381791 0.381877 
0.381933 0.381987 0.382049 0.382107 0.382162 0.382214 0.382244 0.382278 0.382279 
0.382294 0.382188 0.368797 0.368797 0.368883 0.368889 0.368886 0.368882 0.368858 
0.368844 0.368802 0.368784 0.368734 0.368708 0.368664 0.368636 0.368534 0.368466 
0.368422 0.368441 0.368283 0.368021 0.367705 0.367474 0.367206 0.366923 0.366632 
0.366485 0.366408 0.366415 0.366399 0.366422 0.366469 0.366653 0.366917 0.367248 
0.367514 0.367795 0.368102 0.368434 0.368591 0.368651 0.368695 0.368823 0.368914 
0.368987 0.369021 0.369078 0.369105 0.369152 0.369167 0.369205 0.369209 0.369231 
0.369221 0.369232 0.369151 0.356254 0.356254 0.356326 0.356324 0.356343 0.356336 
0.356347 0.356331 0.356335 0.356318 0.356317 0.356289 0.356269 0.356239 0.3562 
0.356091 0.356043 0.356064 0.35611 0.355934 0.355672 0.355369 0.35516 0.354871 
0.354597 0.354349 0.354249 0.35419 0.354204 0.354211 0.354348 0.354563 0.354891 
0.355162 0.35545 0.35573 0.356074 0.356246 0.356276 0.356254 0.356357 0.356458 
0.356535 0.356563 0.356605 0.356626 0.356645 0.356649 0.356664 0.356667 0.356672 
0.356669 0.356661 0.356659 0.356613 0.344201 0.344201 0.34424 0.344248 0.344253 
0.344267 0.34426 0.34427 0.344258 0.344273 0.34427 0.344284 0.344261 0.34427 