# vtk DataFile Version 5.1
vtk output
ASCII
DATASET STRUCTURED_GRID
DIMENSIONS 25 20 18
POINTS 9000 float
1.37622 0.608664 -0.55 1.37622 0.608664 -0.553 1.37622 0.608664 -0.55609 
1.37622 0.608664 -0.559363 1.37622 0.608664 -0.562918 1.37622 0.608664 -0.566862 
1.37622 0.608664 -0.571312 1.37622 0.608664 -0.576403 1.37622 0.608664 -0.582287 
1.37622 0.608664 -0.589143 1.37622 0.608664 -0.597175 1.37622 0.608664 -0.606626 
1.37622 0.608664 -0.617779 1.37622 0.608664 -0.630969 1.37622 0.608664 -0.646595 
1.37622 0.608664 -0.665124 1.37622 0.608664 -0.687115 1.37622 0.608664 -0.713228 
1.37622 0.608664 -0.744248 1.37622 0.608664 -0.781109 1.37622 0.608664 -0.824918 
1.37622 0.608664 -0.876993 1.37622 0.608664 -0.938899 1.37622 0.608664 -1.0125 
1.37622 0.608664 -1.1 1.40176 0.624572 -0.55 1.40176 0.624572 -0.553 
1.40176 0.624572 -0.55609 1.40176 0.624572 -0.559363 1.40176 0.624572 -0.562918 
1.40176 0.624572 -0.566862 1.40176 0.624572 -0.571312 1.40176 0.624572 -0.576403 
1.40176 0.624572 -0.582287 1.40176 0.624572 -0.589143 1.40176 0.624572 -0.597175 
1.40176 0.624572 -0.606626 1.40176 0.624572 -0.617779 1.40176 0.624572 -0.630969 
1.40176 0.624572 -0.646595 1.40176 0.624572 -0.665124 1.40176 0.624572 -0.687115 
1.40176 0.624572 -0.713228 1.40176 0.624572 -0.744248 1.40176 0.624572 -0.781109 
1.40176 0.624572 -0.824918 1.40176 0.624572 -0.876993 1.40176 0.624572 -0.938899 
1.40176 0.624572 -1.0125 1.40176 0.624572 -1.1 1.42685 0.640207 -0.55 
1.42685 0.640207 -0.553 1.42685 0.640207 -0.55609 1.42685 0.640207 -0.559363 
1.42685 0.640207 -0.562918 1.42685 0.640207 -0.566862 1.42685 0.640207 -0.571312 
1.42685 0.640207 -0.576403 1.42685 0.640207 -0.582287 1.42685 0.640207 -0.589143 
1.42685 0.640207 -0.597175 1.42685 0.640207 -0.606626 1.42685 0.640207 -0.617779 
1.42685 0.640207 -0.630969 1.42685 0.640207 -0.646595 1.42685 0.640207 -0.665124 
1.42685 0.640207 -0.687115 1.42685 0.640207 -0.713228 1.42685 0.640207 -0.744248 
1.42685 0.640207 -0.781109 1.42685 0.640207 -0.824918 1.42685 0.640207 -0.876993 
1.42685 0.640207 -0.938899 1.42685 0.640207 -1.0125 1.42685 0.640207 -1.1 
1.45147 0.655543 -0.55 1.45147 0.655543 -0.553 1.45147 0.655543 -0.55609 
1.45147 0.655543 -0.559363 1.45147 0.655543 -0.562918 1.45147 0.655543 -0.566862 
1.45147 0.655543 -0.571312 1.45147 0.655543 -0.576403 1.45147 0.655543 -0.582287 
1.45147 0.655543 -0.589143 1.45147 0.655543 -0.597175 1.45147 0.655543 -0.606626 
1.45147 0.655543 -0.617779 1.45147 0.655543 -0.630969 1.45147 0.655543 -0.646595 
1.45147 0.655543 -0.665124 1.45147 0.655543 -0.687115 1.45147 0.655543 -0.713228 
1.45147 0.655543 -0.744248 1.45147 0.655543 -0.781109 1.45147 0.655543 -0.824918 
1.45147 0.655543 -0.876993 1.45147 0.655543 -0.938899 1.45147 0.655543 -1.0125 
1.45147 0.655543 -1.1 1.47557 0.670554 -0.55 1.47557 0.670554 -0.553 
1.47557 0.670554 -0.55609 1.47557 0.670554 -0.559363 1.47557 0.670554 -0.562918 
1.47557 0.670554 -0.566862 1.47557 0.670554 -0.571312 1.47557 0.670554 -0.576403 
1.47557 0.670554 -0.582287 1.47557 0.670554 -0.589143 1.47557 0.670554 -0.597175 
1.47557 0.670554 -0.606626 1.47557 0.670554 -0.617779 1.47557 0.670554 -0.630969 
1.47557 0.670554 -0.646595 1.47557 0.670554 -0.665124 1.47557 0.670554 -0.687115 
1.47557 0.670554 -0.713228 1.47557 0.670554 -0.744248 1.47557 0.670554 -0.781109 
1.47557 0.670554 -0.824918 1.47557 0.670554 -0.876993 1.47557 0.670554 -0.938899 
1.47557 0.670554 -1.0125 1.47557 0.670554 -1.1 1.49911 0.685219 -0.55 
1.49911 0.685219 -0.553 1.49911 0.685219 -0.55609 1.49911 0.685219 -0.559363 
1.49911 0.685219 -0.562918 1.49911 0.685219 -0.566862 1.49911 0.685219 -0.571312 
1.49911 0.685219 -0.576403 1.49911 0.685219 -0.582287 1.49911 0.685219 -0.589143 
1.49911 0.685219 -0.597175 1.49911 0.685219 -0.606626 1.49911 0.685219 -0.617779 
1.49911 0.685219 -0.630969 1.49911 0.685219 -0.646595 1.49911 0.685219 -0.665124 
1.49911 0.685219 -0.687115 1.49911 0.685219 -0.713228 1.49911 0.685219 -0.744248 
1.49911 0.685219 -0.781109 1.49911 0.685219 -0.824918 1.49911 0.685219 -0.876993 
1.49911 0.685219 -0.938899 1.49911 0.685219 -1.0125 1.49911 0.685219 -1.1 
1.52206 0.699516 -0.55 1.52206 0.699516 -0.553 1.52206 0.699516 -0.55609 
1.52206 0.699516 -0.559363 1.52206 0.699516 -0.562918 1.52206 0.699516 -0.566862 
1.52206 0.699516 -0.571312 1.52206 0.699516 -0.576403 1.52206 0.699516 -0.582287 
1.52206 0.699516 -0.589143 1.52206 0.699516 -0.597175 1.52206 0.699516 -0.606626 
1.52206 0.699516 -0.617779 1.52206 0.699516 -0.630969 1.52206 0.699516 -0.646595 
1.52206 0.699516 -0.665124 1.52206 0.699516 -0.687115 1.52206 0.699516 -0.713228 
1.52206 0.699516 -0.744248 1.52206 0.699516 -0.781109 1.52206 0.699516 -0.824918 
1.52206 0.699516 -0.876993 1.52206 0.699516 -0.938899 1.52206 0.699516 -1.0125 
1.52206 0.699516 -1.1 1.54439 0.71343 -0.55 1.54439 0.71343 -0.553 
1.54439 0.71343 -0.55609 1.54439 0.71343 -0.559363 1.54439 0.71343 -0.562918 
1.54439 0.71343 -0.566862 1.54439 0.71343 -0.571312 1.54439 0.71343 -0.576403 
1.54439 0.71343 -0.582287 1.54439 0.71343 -0.589143 1.54439 0.71343 -0.597175 
1.54439 0.71343 -0.606626 1.54439 0.71343 -0.617779 1.54439 0.71343 -0.630969 
1.54439 0.71343 -0.646595 1.54439 0.71343 -0.665124 1.54439 0.71343 -0.687115 
1.54439 0.71343 -0.713228 1.54439 0.71343 -0.744248 1.54439 0.71343 -0.781109 
1.54439 0.71343 -0.824918 1.54439 0.71343 -0.876993 1.54439 0.71343 -0.938899 
1.54439 0.71343 -1.0125 1.54439 0.71343 -1.1 1.56609 0.726945 -0.55 
1.56609 0.726945 -0.553 1.56609 0.726945 -0.55609 1.56609 0.726945 -0.559363 
1.56609 0.726945 -0.562918 1.56609 0.726945 -0.566862 1.56609 0.726945 -0.571312 
1.56609 0.726945 -0.576403 1.56609 0.726945 -0.582287 1.56609 0.726945 -0.589143 
1.56609 0.726945 -0.597175 1.56609 0.726945 -0.606626 1.56609 0.726945 -0.617779 
1.56609 0.726945 -0.630969 1.56609 0.726945 -0.646595 1.56609 0.726945 -0.665124 
1.56609 0.726945 -0.687115 1.56609 0.726945 -0.713228 1.56609 0.726945 -0.744248 
1.56609 0.726945 -0.781109 1.56609 0.726945 -0.824918 1.56609 0.726945 -0.876993 
1.56609 0.726945 -0.938899 1.56609 0.726945 -1.0125 1.56609 0.726945 -1.1 
1.58712 0.74005 -0.55 1.58712 0.74005 -0.553 1.58712 0.74005 -0.55609 
1.58712 0.74005 -0.559363 1.58712 0.74005 -0.562918 1.58712 0.74005 -0.566862 
1.58712 0.74005 -0.571312 1.58712 0.74005 -0.576403 1.58712 0.74005 -0.582287 
1.58712 0.74005 -0.589143 1.58712 0.74005 -0.597175 1.58712 0.74005 -0.606626 
1.58712 0.74005 -0.617779 1.58712 0.74005 -0.630969 1.58712 0.74005 -0.646595 
1.58712 0.74005 -0.665124 1.58712 0.74005 -0.687115 1.58712 0.74005 -0.713228 
1.58712 0.74005 -0.744248 1.58712 0.74005 -0.781109 1.58712 0.74005 -0.824918 
1.58712 0.74005 -0.876993 1.58712 0.74005 -0.938899 1.58712 0.74005 -1.0125 
1.58712 0.74005 -1.1 1.60748 0.752734 -0.55 1.60748 0.752734 -0.553 
1.60748 0.752734 -0.55609 1.60748 0.752734 -0.559363 1.60748 0.752734 -0.562918 
1.60748 0.752734 -0.566862 1.60748 0.752734 -0.571312 1.60748 0.752734 -0.576403 
1.60748 0.752734 -0.582287 1.60748 0.752734 -0.589143 1.60748 0.752734 -0.597175 
1.60748 0.752734 -0.606626 1.60748 0.752734 -0.617779 1.60748 0.752734 -0.630969 
1.60748 0.752734 -0.646595 1.60748 0.752734 -0.665124 1.60748 0.752734 -0.687115 
1.60748 0.752734 -0.713228 1.60748 0.752734 -0.744248 1.60748 0.752734 -0.781109 
1.60748 0.752734 -0.824918 1.60748 0.752734 -0.876993 1.60748 0.752734 -0.938899 
1.60748 0.752734 -1.0125 1.60748 0.752734 -1.1 1.62716 0.764991 -0.55 
1.62716 0.764991 -0.553 1.62716 0.764991 -0.55609 1.62716 0.764991 -0.559363 
1.62716 0.764991 -0.562918 1.62716 0.764991 -0.566862 1.62716 0.764991 -0.571312 
1.62716 0.764991 -0.576403 1.62716 0.764991 -0.582287 1.62716 0.764991 -0.589143 
1.62716 0.764991 -0.597175 1.62716 0.764991 -0.606626 1.62716 0.764991 -0.617779 
1.62716 0.764991 -0.630969 1.62716 0.764991 -0.646595 1.62716 0.764991 -0.665124 
1.62716 0.764991 -0.687115 1.62716 0.764991 -0.713228 1.62716 0.764991 -0.744248 
1.62716 0.764991 -0.781109 1.62716 0.764991 -0.824918 1.62716 0.764991 -0.876993 
1.62716 0.764991 -0.938899 1.62716 0.764991 -1.0125 1.62716 0.764991 -1.1 
1.64614 0.776816 -0.55 1.64614 0.776816 -0.553 1.64614 0.776816 -0.55609 
1.64614 0.776816 -0.559363 1.64614 0.776816 -0.562918 1.64614 0.776816 -0.566862 
1.64614 0.776816 -0.571312 1.64614 0.776816 -0.576403 1.64614 0.776816 -0.582287 
1.64614 0.776816 -0.589143 1.64614 0.776816 -0.597175 1.64614 0.776816 -0.606626 
1.64614 0.776816 -0.617779 1.64614 0.776816 -0.630969 1.64614 0.776816 -0.646595 
1.64614 0.776816 -0.665124 1.64614 0.776816 -0.687115 1.64614 0.776816 -0.713228 
1.64614 0.776816 -0.744248 1.64614 0.776816 -0.781109 1.64614 0.776816 -0.824918 
1.64614 0.776816 -0.876993 1.64614 0.776816 -0.938899 1.64614 0.776816 -1.0125 
1.64614 0.776816 -1.1 1.66442 0.788206 -0.55 1.66442 0.788206 -0.553 
1.66442 0.788206 -0.55609 1.66442 0.788206 -0.559363 1.66442 0.788206 -0.562918 
1.66442 0.788206 -0.566862 1.66442 0.788206 -0.571312 1.66442 0.788206 -0.576403 
1.66442 0.788206 -0.582287 1.66442 0.788206 -0.589143 1.66442 0.788206 -0.597175 
1.66442 0.788206 -0.606626 1.66442 0.788206 -0.617779 1.66442 0.788206 -0.630969 
1.66442 0.788206 -0.646595 1.66442 0.788206 -0.665124 1.66442 0.788206 -0.687115 
1.66442 0.788206 -0.713228 1.66442 0.788206 -0.744248 1.66442 0.788206 -0.781109 
1.66442 0.788206 -0.824918 1.66442 0.788206 -0.876993 1.66442 0.788206 -0.938899 
1.66442 0.788206 -1.0125 1.66442 0.788206 -1.1 1.68201 0.79916 -0.55 
1.68201 0.79916 -0.553 1.68201 0.79916 -0.55609 1.68201 0.79916 -0.559363 
1.68201 0.79916 -0.562918 1.68201 0.79916 -0.566862 1.68201 0.79916 -0.571312 
1.68201 0.79916 -0.576403 1.68201 0.79916 -0.582287 1.68201 0.79916 -0.589143 
1.68201 0.79916 -0.597175 1.68201 0.79916 -0.606626 1.68201 0.79916 -0.617779 
1.68201 0.79916 -0.630969 1.68201 0.79916 -0.646595 1.68201 0.79916 -0.665124 
1.68201 0.79916 -0.687115 1.68201 0.79916 -0.713228 1.68201 0.79916 -0.744248 
1.68201 0.79916 -0.781109 1.68201 0.79916 -0.824918 1.68201 0.79916 -0.876993 
[...]
POINT_DATA 9000
FIELD FieldData 5
pressure 1 9000 float
0.185388 0.185388 0.185909 0.187577 0.189963 0.192213 0.194284 0.19616 0.197958 
0.199722 0.201472 0.203214 0.204962 0.206697 0.20843 0.210127 0.211789 0.213441 
0.215091 0.216789 0.218499 0.219294 0.21772 0.21274 0.189642 0.18569 0.18569 
0.186241 0.187915 0.190272 0.192488 0.194527 0.196372 0.198143 0.199885 0.201627 
0.203373 0.205105 0.206825 0.208513 0.210182 0.211815 0.21343 0.214981 0.21656 
0.218278 0.21936 0.218028 0.212909 0.190027 0.186045 0.186045 0.186648 0.18836 
0.19071 0.192895 0.194898 0.196692 0.198402 0.200077 0.201754 0.203449 0.20517 
0.206902 0.208643 0.210359 0.212013 0.213553 0.214947 0.216358 0.218089 0.219361 
0.218198 0.212975 0.190365 0.186711 0.186711 0.187289 0.188958 0.191261 0.193406 
0.195368 0.197114 0.198768 0.200376 0.201987 0.203633 0.205327 0.207082 0.208872 
0.210618 0.21224 0.213671 0.21493 0.216247 0.217962 0.219283 0.218234 0.212965 
0.190648 0.18704 0.18704 0.18772 0.189431 0.19174 0.193866 0.19579 0.197513 
0.19914 0.200734 0.202326 0.203953 0.205632 0.207353 0.209113 0.210826 0.212423 
0.213851 0.215101 0.216314 0.217829 0.219109 0.218167 0.212871 0.190896 0.186654 
0.186654 0.187554 0.189449 0.191886 0.194069 0.19604 0.197775 0.199416 0.201004 
0.202597 0.204209 0.205855 0.207519 0.209185 0.210871 0.21252 0.214104 0.215466 
0.216517 0.217707 0.218905 0.218008 0.212667 0.191124 0.186448 0.186448 0.187422 
0.189405 0.1919 0.194167 0.196184 0.197953 0.199595 0.201164 0.202706 0.204252 
0.205824 0.207417 0.209037 0.210725 0.212469 0.214229 0.215794 0.216791 0.217739 
0.218757 0.21775 0.212385 0.191306 0.187035 0.187035 0.187945 0.189846 0.192283 
0.194553 0.196582 0.198359 0.199991 0.201529 0.203002 0.204465 0.205938 0.207468 
0.209054 0.210735 0.212475 0.214207 0.215924 0.2171 0.217955 0.218634 0.217385 
0.212075 0.19144 0.187988 0.187988 0.188866 0.190699 0.193103 0.195365 0.197398 
0.199197 0.200879 0.202467 0.203995 0.205469 0.206954 0.208423 0.209882 0.211303 
0.21273 0.214136 0.215818 0.217332 0.218245 0.21852 0.216958 0.211741 0.19153 
0.18887 0.18887 0.189747 0.191559 0.193941 0.196222 0.198283 0.200124 0.201868 
0.203545 0.205167 0.206749 0.208275 0.209774 0.211138 0.212326 0.213372 0.214367 
0.215796 0.217481 0.218462 0.218449 0.216575 0.211359 0.191578 0.189727 0.189727 
0.190458 0.192096 0.194354 0.196574 0.198618 0.200468 0.202227 0.203946 0.205624 
0.20726 0.208864 0.2104 0.211899 0.213217 0.214337 0.215199 0.216194 0.217596 
0.218549 0.218452 0.216268 0.210953 0.191579 0.18959 0.18959 0.190462 0.192143 
0.194398 0.196562 0.198569 0.200377 0.202106 0.203804 0.205489 0.207161 0.208795 
0.210408 0.211996 0.213601 0.215147 0.216309 0.21696 0.217774 0.218554 0.218484 
0.215977 0.210563 0.191544 0.189285 0.189285 0.190292 0.192089 0.194396 0.19658 
0.198587 0.200376 0.202075 0.203743 0.205427 0.207127 0.20882 0.210486 0.212157 
0.213836 0.215634 0.217174 0.217826 0.218133 0.218682 0.218482 0.215649 0.210216 
0.191497 0.189747 0.189747 0.190709 0.192474 0.194738 0.196897 0.19886 0.200621 
0.202264 0.203891 0.205546 0.20728 0.209081 0.210905 0.212711 0.214414 0.216083 
0.217684 0.218548 0.218712 0.218995 0.218453 0.215291 0.209902 0.191443 0.190989 
0.190989 0.191761 0.193363 0.195489 0.197517 0.199364 0.201009 0.202546 0.20406 
0.205616 0.207266 0.20905 0.210957 0.212962 0.214893 0.216513 0.218047 0.219189 
0.219426 0.219359 0.218379 0.214929 0.209568 0.191377 0.194516 0.194516 0.194972 
0.19633 0.198272 0.200105 0.201738 0.203104 0.204303 0.205392 0.206498 0.2077 
0.209055 0.210635 0.212516 0.214515 0.216398 0.218249 0.219857 0.220285 0.219717 
0.218317 0.214612 0.209227 0.191291 0.19821 0.19821 0.19867 0.200024 0.202085 
0.204126 0.205976 0.207537 0.208878 0.210019 0.210933 0.211675 0.212166 0.212533 
0.212941 0.214081 0.215836 0.217983 0.220251 0.221168 0.220235 0.218402 0.214385 
0.208958 0.191225 0.199169 0.199169 0.199859 0.201307 0.203424 0.205468 0.207392 
0.209141 0.210803 0.212348 0.213828 0.21517 0.21651 0.21708 0.217075 0.216513 
0.21636 0.217616 0.219966 0.22168 0.220954 0.218689 0.214183 0.208716 0.191175 
0.198849 0.198849 0.199592 0.201036 0.203123 0.205155 0.207048 0.208767 0.210409 
0.212008 0.21363 0.215289 0.217001 0.218969 0.220384 0.220923 0.220094 0.218855 
0.21973 0.221566 0.221551 0.219068 0.214011 0.208336 0.191099 0.197827 0.197827 
0.198662 0.200129 0.202193 0.204196 0.206063 0.20774 0.209337 0.210899 0.212509 
0.21425 0.2161 0.218166 0.22027 0.222172 0.223297 0.222221 0.220892 0.221487 
0.221715 0.219431 0.213975 0.207913 0.191016 0.119345 0.119345 0.136398 0.151713 
0.163905 0.172761 0.179218 0.184245 0.188392 0.191952 0.195101 0.197949 0.200574 
0.203021 0.205334 0.207527 0.209618 0.211622 0.213575 0.215552 0.217534 0.218693 
0.217381 0.212403 0.189718 0.119151 0.119151 0.136232 0.151735 0.163978 0.172828 
0.179253 0.184214 0.188319 0.191876 0.195051 0.197943 0.2006 0.203053 0.205333 
0.207476 0.209516 0.211483 0.213377 0.215291 0.217298 0.218685 0.217615 0.212514 
0.190091 0.119474 0.119474 0.136313 0.151814 0.164077 0.172976 0.179409 0.184335 
0.188374 0.191867 0.194997 0.197865 0.200532 0.203018 0.205344 0.207536 0.209608 
0.211543 0.213309 0.21505 0.217039 0.218621 0.217728 0.212532 0.190409 0.119802 
0.119802 0.136486 0.151912 0.164169 0.173108 0.179596 0.184513 0.188518 0.191956 
0.195029 0.197859 0.200516 0.203046 0.205455 0.207714 0.209791 0.211643 0.213257 
0.214861 0.216841 0.218501 0.2177 0.21246 0.19068 0.119512 0.119512 0.136111 
0.151624 0.163943 0.173052 0.179656 0.18464 0.188678 0.192129 0.195203 0.198025 
0.200685 0.203219 0.20565 0.207908 0.209957 0.211764 0.213331 0.214841 0.216678 
0.218288 0.217554 0.212297 0.190919 0.117803 0.117803 0.134567 0.150339 0.163153 
0.172654 0.179513 0.184638 0.188754 0.192251 0.195362 0.198206 0.200861 0.203362 
0.205729 0.207967 0.210041 0.211964 0.213631 0.215009 0.216519 0.217995 0.217314 
0.212045 0.19113 0.115566 0.115566 0.131208 0.147755 0.16113 0.171464 0.178886 
0.184352 0.188642 0.192213 0.19534 0.198161 0.200768 0.203211 0.20552 0.207765 
0.209949 0.212079 0.213965 0.215261 0.216463 0.217752 0.216988 0.211724 0.191289 
0.11562 0.11562 0.131019 0.146361 0.159496 0.170134 0.178038 0.183937 0.188473 
0.192172 0.195324 0.198116 0.200658 0.203046 0.205335 0.207604 0.209848 0.212036 
0.214113 0.215537 0.216603 0.217577 0.216553 0.211364 0.191398 0.116177 0.116177 
0.131454 0.145845 0.15881 0.169373 0.177553 0.183797 0.188653 0.19255 0.19585 
0.198706 0.20127 0.203618 0.205826 0.207935 0.209979 0.211906 0.213991 0.215748 
0.216864 0.21742 0.216032 0.210986 0.191465 0.116893 0.116893 0.131642 0.145676 
0.158472 0.168934 0.177263 0.183838 0.189012 0.19321 0.196724 0.199776 0.202452 
0.204847 0.206974 0.208845 0.210498 0.211997 0.213858 0.215863 0.21709 0.21729 
0.215519 0.21057 0.191493 0.117557 0.117557 0.132074 0.145597 0.158185 0.168465 
0.176774 0.183473 0.188909 0.193358 0.197106 0.200324 0.203155 0.205651 0.207865 
0.209763 0.211363 0.21264 0.214094 0.215947 0.21719 0.217219 0.21509 0.21013 
0.191477 0.116047 0.116047 0.13039 0.144843 0.157576 0.167873 0.176089 0.182711 
0.188191 0.192795 0.196714 0.200099 0.203044 0.205653 0.208008 0.210181 0.212151 
0.213677 0.214765 0.216082 0.217169 0.217194 0.214719 0.209699 0.191421 0.114793 
0.114793 0.128546 0.143227 0.156272 0.166999 0.17542 0.182086 0.187521 0.192144 
0.196162 0.199674 0.202772 0.205498 0.207981 0.210299 0.212619 0.214582 0.215618 
0.216364 0.217195 0.217157 0.214353 0.20929 0.191348 0.114829 0.114829 0.12885 
0.14282 0.155632 0.166324 0.174915 0.181704 0.187171 0.191762 0.195795 0.199422 
0.202697 0.205644 0.208297 0.210678 0.212966 0.215113 0.216354 0.216847 0.217406 
0.217098 0.213963 0.208913 0.191266 0.116774 0.116774 0.130606 0.143622 0.155912 
0.166267 0.174825 0.181618 0.187056 0.191561 0.195525 0.199126 0.20248 0.205593 
0.20851 0.211108 0.213348 0.21542 0.216942 0.217482 0.217741 0.216996 0.213547 
0.208517 0.191184 0.120935 0.120935 0.134674 0.146379 0.158119 0.167998 0.176299 
0.182937 0.188221 0.192479 0.196113 0.199365 0.202393 0.205267 0.208104 0.210862 
0.213285 0.215558 0.217513 0.218265 0.218092 0.216882 0.213175 0.208101 0.191098 
0.123863 0.123863 0.137583 0.149417 0.161288 0.171208 0.179589 0.186337 0.191763 
0.196096 0.199574 0.202396 0.204725 0.206593 0.208425 0.210483 0.212725 0.215251 
0.217846 0.219128 0.218546 0.216877 0.21291 0.207725 0.191021 0.123475 0.123475 
0.137613 0.150244 0.162541 0.17262 0.181147 0.188022 0.193751 0.198521 0.202526 
0.205847 0.208455 0.210601 0.211716 0.212284 0.21309 0.214846 0.21759 0.219669 
0.219186 0.21708 0.212703 0.207397 0.190957 0.122141 0.122141 0.136579 0.149684 
0.162047 0.17218 0.180643 0.187498 0.19321 0.198057 0.202262 0.206069 0.209659 
0.212808 0.215229 0.216334 0.216303 0.215819 0.217341 0.219584 0.21973 0.217393 
0.212506 0.206979 0.190869 0.120244 0.120244 0.134746 0.148097 0.160574 0.170879 
0.179364 0.186274 0.192007 0.196874 0.201158 0.205065 0.20869 0.212033 0.215119 
0.217853 0.219369 0.219028 0.218293 0.219426 0.219906 0.217766 0.212444 0.206524 
0.19076 0.100714 0.100714 0.108421 0.11983 0.134532 0.147523 0.158808 0.167934 
0.175295 0.181379 0.186528 0.190951 0.194812 0.198237 0.201348 0.204207 0.20687 
0.209343 0.21169 0.21399 0.216303 0.217861 0.216867 0.212013 0.189718 0.100347 
0.100347 0.107215 0.118039 0.132762 0.146129 0.157805 0.167245 0.174785 0.18095 
0.186164 0.190666 0.19461 0.198092 0.201201 0.204016 0.206624 0.209063 0.211379 
0.213663 0.216009 0.217772 0.217023 0.212085 0.190083 0.0999352 0.0999352 0.106415 
0.116768 0.131301 0.144868 0.15684 0.166605 0.174339 0.180592 0.185827 0.190342 
0.194322 0.197861 0.201027 0.203889 0.206529 0.208971 0.211214 0.213362 0.215678 
0.217624 0.217068 0.212057 0.190387 0.0998405 0.0998405 0.106072 0.116043 0.130379 
0.14401 0.156044 0.166042 0.173955 0.180298 0.185549 0.190055 0.194036 0.197631 
0.2009 0.20387 0.206563 0.208973 0.211085 0.213086 0.215386 0.217433 0.216972 
0.211917 0.190648 0.101466 0.101466 0.107419 0.116637 0.130327 0.143332 0.15545 
0.16561 0.173654 0.180094 0.185397 0.189929 0.19393 0.197559 0.2009 0.203926 
0.206624 0.208981 0.211013 0.212927 0.215155 0.217166 0.216743 0.21167 0.19088 
0.106049 0.106049 0.110792 0.117858 0.129409 0.142026 0.154381 0.164855 0.173214 
0.179864 0.185296 0.189898 0.19394 0.19757 0.200899 0.203924 0.206633 0.209047 
0.211139 0.212971 0.214941 0.216799 0.216411 0.211362 0.191064 0.111386 0.111386 
0.115199 0.119675 0.129238 0.141065 0.153047 0.163676 0.172388 0.179352 0.184976 
0.189678 0.193736 0.197344 0.200614 0.203656 0.206462 0.209082 0.211385 0.213143 
0.214777 0.21643 0.215993 0.210999 0.191193 0.112684 0.112684 0.115747 0.120048 
0.129497 0.140407 0.151829 0.162408 0.171368 0.178617 0.184461 0.189268 0.193353 
0.196933 0.200189 0.203263 0.20619 0.208973 0.21152 0.213341 0.214769 0.216145 
0.215475 0.210587 0.191273 0.113731 0.113731 0.11669 0.12101 0.13035 0.140286 
0.151114 0.161505 0.170575 0.178092 0.184192 0.189172 0.19334 0.196942 0.200163 
0.203186 0.206061 0.208738 0.211379 0.21348 0.21492 0.215913 0.214858 0.210152 
0.191309 0.113756 0.113756 0.117184 0.121792 0.130966 0.140591 0.151059 0.161083 
0.170171 0.177959 0.184405 0.18967 0.194036 0.197731 0.200932 0.203747 0.206299 
0.208602 0.211099 0.213509 0.215093 0.2157 0.214202 0.209688 0.191312 0.112866 
0.112866 0.116537 0.121652 0.130978 0.140742 0.151112 0.160893 0.169803 0.1777 
0.184433 0.190045 0.194667 0.19855 0.201819 0.204579 0.206934 0.208905 0.211053 
0.213489 0.215162 0.215518 0.2136 0.209202 0.191277 0.113872 0.113872 0.117293 
0.121306 0.129805 0.139864 0.150495 0.160318 0.169132 0.176937 0.183778 0.189645 
0.194523 0.198606 0.202085 0.205063 0.207628 0.209689 0.211462 0.21351 0.215088 
0.215372 0.213105 0.2087 0.1912 0.114792 0.114792 0.117344 0.120786 0.128503 
0.137947 0.148794 0.159013 0.168114 0.175931 0.182763 0.188744 0.193847 0.198139 
0.201814 0.205036 0.20803 0.210537 0.21218 0.213654 0.214971 0.215237 0.212673 
0.2082 0.191095 0.114985 0.114985 0.116827 0.119684 0.12715 0.136215 0.146844 
0.15736 0.166841 0.174968 0.181877 0.187938 0.19323 0.197799 0.201695 0.205063 
0.208193 0.211055 0.212882 0.213963 0.214982 0.215093 0.212241 0.207701 0.190996 
0.113404 0.113404 0.115462 0.118753 0.126467 0.13538 0.145687 0.156068 0.165684 
0.17406 0.181106 0.187203 0.192614 0.197421 0.201666 0.205289 0.208417 0.211292 
0.213377 0.214417 0.215172 0.214925 0.211773 0.207181 0.190909 0.110905 0.110905 
0.11313 0.118266 0.126933 0.136174 0.14614 0.15609 0.16552 0.173909 0.18095 
0.186914 0.192183 0.196901 0.201207 0.205086 0.208383 0.211344 0.213796 0.214992 
0.215435 0.214726 0.21131 0.206649 0.190811 0.110052 0.110052 0.112933 0.119088 
0.128334 0.138328 0.148479 0.158365 0.167604 0.175878 0.182848 0.188498 0.193107 
0.197206 0.20103 0.204599 0.207815 0.211001 0.214023 0.215717 0.215757 0.21458 
0.210935 0.206151 0.190701 0.11005 0.11005 0.112777 0.118894 0.12819 0.138996 
0.149828 0.160256 0.169822 0.17836 0.185602 0.191535 0.196394 0.200092 0.202911 
0.205201 0.207635 0.210425 0.213793 0.216264 0.216227 0.214602 0.210659 0.205731 
0.190594 0.109866 0.109866 0.112148 0.117521 0.126447 0.137664 0.149016 0.159791 
0.169477 0.178098 0.185824 0.192532 0.198231 0.202825 0.206084 0.208294 0.209477 
0.210653 0.21333 0.216257 0.216691 0.214767 0.210395 0.205287 0.190475 0.111321 
0.111321 0.113163 0.117878 0.125876 0.136022 0.14716 0.158192 0.168255 0.177092 
0.184824 0.191599 0.197471 0.202571 0.207111 0.210784 0.212738 0.213042 0.213675 
0.215892 0.216859 0.215069 0.210246 0.204782 0.190329 0.112468 0.112468 0.112457 
0.112891 0.116999 0.125782 0.13764 0.149216 0.159581 0.168389 0.175858 0.182238 
0.187715 0.192456 0.196613 0.200335 0.2037 0.206754 0.209567 0.212233 0.214904 
0.216932 0.216327 0.211592 0.189669 0.112555 0.112555 0.112608 0.113007 0.116495 
0.124399 0.136096 0.147815 0.158448 0.167481 0.175108 0.181623 0.187231 0.192084 
0.196292 0.199997 0.203328 0.206351 0.20915 0.211831 0.214549 0.216754 0.216391 
0.211616 0.190024 0.112619 0.112619 0.112722 0.113083 0.116123 0.123143 0.134515 
0.146324 0.157293 0.166602 0.174396 0.180998 0.186686 0.191633 0.195931 0.19969 
0.203054 0.206096 0.208867 0.211469 0.214159 0.216512 0.216345 0.211529 0.190315 
0.112712 0.112712 0.112803 0.11295 0.115453 0.12172 0.132939 0.144762 0.156026 
0.165646 0.173661 0.18037 0.18611 0.191135 0.195558 0.199452 0.202905 0.205968 
0.208654 0.211126 0.213785 0.216228 0.216164 0.211305 0.190571 0.112066 0.112066 
0.111662 0.11158 0.113732 0.120583 0.131707 0.143351 0.154824 0.164724 0.172971 
0.179832 0.185661 0.190752 0.195293 0.199302 0.202819 0.205862 0.208469 0.210854 
0.213469 0.21589 0.215849 0.210973 0.190787 0.110319 0.110319 0.109758 0.110164 
0.114001 0.12036 0.130913 0.142303 0.153776 0.163882 0.172369 0.179424 0.185381 
0.190536 0.195115 0.199173 0.202718 0.205793 0.208421 0.210756 0.213195 0.215459 
0.215416 0.210595 0.19094 0.10875 0.10875 0.10856 0.109594 0.114171 0.120018 
0.130035 0.141268 0.15266 0.162937 0.171656 0.178901 0.184999 0.190197 0.194767 
0.198849 0.202479 0.20572 0.208532 0.210822 0.212954 0.214986 0.214884 0.210176 
0.191039 0.107801 0.107801 0.10803 0.109498 0.113989 0.119606 0.129187 0.140073 
0.15133 0.161762 0.170694 0.178136 0.184335 0.189599 0.194169 0.198307 0.202076 
0.205541 0.208619 0.21095 0.212818 0.214573 0.214259 0.209708 0.19109 0.107942 
0.107942 0.10828 0.109856 0.114215 0.120018 0.129082 0.139215 0.150165 0.160587 
0.169736 0.177397 0.183763 0.189112 0.193728 0.197882 0.201712 0.205212 0.208478 
0.211026 0.212839 0.214246 0.213536 0.209207 0.191099 0.109385 0.109385 0.109709 
0.111383 0.114737 0.120496 0.129153 0.138937 0.149536 0.159839 0.169157 0.177134 
0.183755 0.189286 0.193938 0.197992 0.201634 0.204894 0.208114 0.210984 0.21293 
0.213958 0.212742 0.208682 0.191077 0.110781 0.110781 0.1107 0.112156 0.114525 
0.120242 0.12874 0.138624 0.149163 0.159329 0.168773 0.177028 0.184013 0.189803 
0.1946 0.198587 0.201994 0.204889 0.207842 0.210856 0.212962 0.213687 0.211988 
0.208117 0.191024 0.111514 0.111514 0.111149 0.111797 0.11464 0.119561 0.127864 
0.137937 0.148553 0.158705 0.168109 0.176495 0.183762 0.189857 0.194911 0.19907 
0.202543 0.205378 0.207955 0.210755 0.21285 0.213438 0.211359 0.207521 0.190927 
0.111084 0.111084 0.111013 0.111804 0.114766 0.118866 0.126766 0.136797 0.147443 
0.157705 0.167072 0.175454 0.182886 0.189225 0.194553 0.199013 0.202894 0.206084 
0.208475 0.210761 0.212643 0.213199 0.210842 0.206887 0.190813 0.11031 0.11031 
0.11038 0.111671 0.115344 0.119397 0.126518 0.135219 0.145894 0.156355 0.165908 
0.174322 0.181845 0.188431 0.19405 0.198762 0.202926 0.206576 0.209098 0.210931 
0.212485 0.212963 0.210377 0.206243 0.190695 0.110925 0.110925 0.110907 0.112936 
0.115862 0.119743 0.125757 0.133728 0.144088 0.154692 0.164598 0.173232 0.180858 
0.187659 0.193654 0.198682 0.202955 0.206764 0.209552 0.211228 0.212505 0.212723 
0.209886 0.205614 0.190571 0.113325 0.113325 0.113259 0.114558 0.116009 0.119258 
0.125123 0.13301 0.14288 0.15325 0.163334 0.172216 0.179943 0.186797 0.192986 
0.198381 0.202873 0.206776 0.209865 0.211624 0.212642 0.212457 0.209358 0.204998 
0.190432 0.116766 0.116766 0.116378 0.116562 0.117196 0.11995 0.125802 0.133844 
0.143668 0.153764 0.163574 0.172321 0.179808 0.186335 0.192311 0.197704 0.202294 
0.206417 0.210044 0.212164 0.212852 0.212202 0.208864 0.204407 0.190279 0.119461 
0.119461 0.119162 0.118933 0.11885 0.12098 0.126439 0.134858 0.145054 0.155404 
0.165311 0.174261 0.181819 0.187881 0.192875 0.197493 0.20171 0.205722 0.20979 
0.212682 0.213173 0.212079 0.208484 0.203896 0.190124 0.120359 0.120359 0.120004 
0.119522 0.119086 0.120281 0.125001 0.133976 0.14487 0.1558 0.166148 0.175598 
0.183694 0.190338 0.19547 0.199357 0.202315 0.205393 0.209229 0.212741 0.213558 
0.212082 0.208143 0.20341 0.189966 0.118948 0.118948 0.118261 0.117593 0.117183 
0.118539 0.123316 0.132093 0.143021 0.154357 0.165115 0.174837 0.183443 0.191057 
0.1973 0.202045 0.205023 0.206574 0.209051 0.212347 0.213739 0.212298 0.207918 
0.202886 0.189788 0.110475 0.110475 0.110044 0.110055 0.111424 0.114442 0.121636 
0.13165 0.143067 0.153975 0.163649 0.172018 0.179265 0.185545 0.190985 0.195758 
0.199979 0.20373 0.207107 0.210206 0.213272 0.215826 0.215685 0.211103 0.189593 
0.110774 0.110774 0.110288 0.110318 0.11117 0.11418 0.120213 0.130018 0.141477 
0.152602 0.162513 0.171066 0.178472 0.184897 0.19044 0.195245 0.19947 0.203203 
0.206575 0.209715 0.212847 0.215548 0.215641 0.211068 0.189937 0.111139 0.111139 
0.110498 0.110408 0.110909 0.113858 0.118767 0.128393 0.139744 0.151123 0.161344 
0.170125 0.17767 0.184213 0.189873 0.194749 0.199014 0.202776 0.206151 0.209271 
0.212396 0.215199 0.21548 0.210905 0.190221 0.111436 0.111436 0.110705 0.110586 
0.110995 0.114164 0.11849 0.127177 0.138161 0.149642 0.160098 0.169121 0.176811 
0.183457 0.189253 0.194275 0.198652 0.202476 0.205822 0.208858 0.211942 0.214806 
0.215195 0.210583 0.190474 0.111279 0.111279 0.110839 0.110975 0.112134 0.114747 
0.118289 0.126144 0.136667 0.148129 0.158836 0.168113 0.17599 0.182756 0.188689 
0.19387 0.198364 0.202228 0.205526 0.208483 0.211528 0.214371 0.214785 0.210169 
0.190661 0.111387 0.111387 0.111247 0.112073 0.113537 0.114365 0.117467 0.124828 
0.135227 0.146651 0.157607 0.167176 0.175308 0.182223 0.188261 0.193535 0.198103 
0.202006 0.20531 0.208231 0.211168 0.213867 0.21424 0.209712 0.19078 0.112113 
0.112113 0.112067 0.113102 0.113634 0.11422 0.117042 0.12352 0.133796 0.145156 
0.156333 0.166208 0.174596 0.181693 0.187787 0.193123 0.197761 0.201793 0.205239 
0.208151 0.210847 0.213301 0.213576 0.209222 0.190845 0.112556 0.112556 0.112428 
0.113299 0.113564 0.114129 0.116664 0.12255 0.132444 0.143643 0.154917 0.164994 
0.17363 0.180888 0.187058 0.192467 0.197251 0.201508 0.205222 0.208174 0.210594 
0.212758 0.212816 0.208689 0.190867 0.113039 0.113039 0.112778 0.113367 0.113112 
0.11359 0.115944 0.121818 0.13124 0.142268 0.15348 0.163698 0.172535 0.17999 