# vtk DataFile Version 5.1
vtk output
ASCII
DATASET STRUCTURED_GRID
DIMENSIONS 20 99 25
POINTS 49500 float
1.44059 1 -0.5 1.4413 0.997086 -0.5 1.44206 0.994007 -0.5 
1.44285 0.990759 -0.5 1.44369 0.987337 -0.5 1.44457 0.983738 -0.5 
1.4455 0.979961 -0.5 1.44647 0.976002 -0.5 1.44748 0.971862 -0.5 
1.44854 0.967541 -0.5 1.44964 0.96304 -0.5 1.45078 0.958363 -0.5 
1.45197 0.953512 -0.5 1.4532 0.948495 -0.5 1.45447 0.943317 -0.5 
1.45577 0.937986 -0.5 1.45711 0.932514 -0.5 1.45849 0.92691 -0.5 
1.45989 0.921187 -0.5 1.46131 0.915359 -0.5 1.43776 0.999016 -0.5 
1.43851 0.995998 -0.5 1.4393 0.99283 -0.5 1.44012 0.989504 -0.5 
1.44098 0.986017 -0.5 1.44189 0.982363 -0.5 1.44283 0.978538 -0.5 
1.44382 0.974541 -0.5 1.44485 0.970369 -0.5 1.44592 0.966021 -0.5 
1.44703 0.9615 -0.5 1.44819 0.956806 -0.5 1.44938 0.951943 -0.5 
1.45062 0.946917 -0.5 1.45189 0.941733 -0.5 1.45321 0.936399 -0.5 
1.45455 0.930925 -0.5 1.45593 0.925321 -0.5 1.45733 0.919599 -0.5 
1.45877 0.913773 -0.5 1.43466 0.997942 -0.5 1.43545 0.99481 -0.5 
1.43628 0.991543 -0.5 1.43713 0.988134 -0.5 1.43803 0.984575 -0.5 
1.43895 0.98086 -0.5 1.43992 0.976984 -0.5 1.44093 0.972944 -0.5 
1.44197 0.968736 -0.5 1.44305 0.96436 -0.5 1.44418 0.959816 -0.5 
1.44535 0.955104 -0.5 1.44655 0.950228 -0.5 1.4478 0.945192 -0.5 
1.44908 0.940001 -0.5 1.4504 0.934663 -0.5 1.45175 0.929187 -0.5 
1.45313 0.923583 -0.5 1.45454 0.917862 -0.5 1.45598 0.912038 -0.5 
1.43128 0.996768 -0.5 1.43212 0.993512 -0.5 1.43298 0.990138 -0.5 
1.43387 0.986637 -0.5 1.4348 0.982999 -0.5 1.43575 0.979218 -0.5 
1.43674 0.975286 -0.5 1.43777 0.971199 -0.5 1.43883 0.966953 -0.5 
1.43993 0.962546 -0.5 1.44107 0.957976 -0.5 1.44225 0.953245 -0.5 
1.44346 0.948353 -0.5 1.44471 0.943306 -0.5 1.446 0.938108 -0.5 
1.44733 0.932766 -0.5 1.44869 0.927288 -0.5 1.45008 0.921684 -0.5 
1.4515 0.915964 -0.5 1.45294 0.910141 -0.5 1.42759 0.995488 -0.5 
1.42848 0.992096 -0.5 1.42939 0.988605 -0.5 1.43032 0.985003 -0.5 
1.43127 0.98128 -0.5 1.43226 0.977426 -0.5 1.43327 0.973433 -0.5 
1.43432 0.969295 -0.5 1.4354 0.965006 -0.5 1.43651 0.960565 -0.5 
1.43767 0.955967 -0.5 1.43886 0.951214 -0.5 1.44009 0.946307 -0.5 
1.44135 0.941247 -0.5 1.44265 0.936041 -0.5 1.44398 0.930694 -0.5 
1.44534 0.925213 -0.5 1.44674 0.919609 -0.5 1.44816 0.91389 -0.5 
1.44961 0.908069 -0.5 1.42357 0.994092 -0.5 1.42451 0.990551 -0.5 
1.42547 0.986933 -0.5 1.42644 0.983222 -0.5 1.42743 0.979405 -0.5 
1.42844 0.975471 -0.5 1.42948 0.971411 -0.5 1.43055 0.967217 -0.5 
1.43166 0.962883 -0.5 1.43279 0.958403 -0.5 1.43396 0.953775 -0.5 
1.43516 0.948998 -0.5 1.4364 0.944073 -0.5 1.43767 0.939 -0.5 
1.43898 0.933785 -0.5 1.44032 0.928432 -0.5 1.44169 0.922949 -0.5 
1.4431 0.917343 -0.5 1.44453 0.911625 -0.5 1.44598 0.905807 -0.5 
1.41918 0.99257 -0.5 1.42019 0.988868 -0.5 1.42119 0.985111 -0.5 
1.42221 0.98128 -0.5 1.42324 0.977361 -0.5 1.42429 0.973341 -0.5 
1.42536 0.969208 -0.5 1.42645 0.964952 -0.5 1.42758 0.960567 -0.5 
1.42873 0.956046 -0.5 1.42992 0.951385 -0.5 1.43113 0.946582 -0.5 
1.43239 0.941637 -0.5 1.43367 0.93655 -0.5 1.43499 0.931325 -0.5 
1.43633 0.925966 -0.5 1.43771 0.920479 -0.5 1.43912 0.914872 -0.5 
1.44056 0.909155 -0.5 1.44202 0.903338 -0.5 1.41441 0.990913 -0.5 
1.41548 0.987036 -0.5 1.41654 0.983127 -0.5 1.4176 0.979166 -0.5 
1.41868 0.975135 -0.5 1.41976 0.97102 -0.5 1.42086 0.966808 -0.5 
1.42199 0.962485 -0.5 1.42314 0.958045 -0.5 1.42431 0.953479 -0.5 
1.42551 0.948782 -0.5 1.42675 0.94395 -0.5 1.42801 0.938983 -0.5 
1.42931 0.93388 -0.5 1.43063 0.928643 -0.5 1.43199 0.923277 -0.5 
1.43338 0.917787 -0.5 1.43479 0.912179 -0.5 1.43623 0.906463 -0.5 
1.4377 0.900648 -0.5 1.40922 0.989111 -0.5 1.41035 0.985042 -0.5 
1.41148 0.980968 -0.5 1.41259 0.976865 -0.5 1.41371 0.972714 -0.5 
1.41484 0.968496 -0.5 1.41598 0.964196 -0.5 1.41713 0.959801 -0.5 
1.4183 0.9553 -0.5 1.4195 0.950684 -0.5 1.42072 0.945948 -0.5 
1.42197 0.941085 -0.5 1.42325 0.936094 -0.5 1.42456 0.930973 -0.5 
1.42589 0.925724 -0.5 1.42726 0.92035 -0.5 1.42865 0.914855 -0.5 
1.43008 0.909246 -0.5 1.43152 0.903531 -0.5 1.433 0.897718 -0.5 
1.40357 0.987153 -0.5 1.40479 0.982875 -0.5 1.40598 0.978621 -0.5 
1.40715 0.974364 -0.5 1.40832 0.970081 -0.5 1.40949 0.965751 -0.5 
1.41066 0.961356 -0.5 1.41185 0.956882 -0.5 1.41305 0.952315 -0.5 
1.41427 0.947646 -0.5 1.41551 0.942866 -0.5 1.41678 0.937969 -0.5 
1.41807 0.932951 -0.5 1.41939 0.927811 -0.5 1.42074 0.922548 -0.5 
1.42211 0.917166 -0.5 1.42351 0.911666 -0.5 1.42494 0.906055 -0.5 
1.4264 0.90034 -0.5 1.42788 0.894529 -0.5 1.39745 0.985026 -0.5 
1.39874 0.980522 -0.5 1.4 0.976073 -0.5 1.40124 0.971648 -0.5 
1.40246 0.967222 -0.5 1.40367 0.962769 -0.5 1.40489 0.958272 -0.5 
1.40611 0.953711 -0.5 1.40734 0.949073 -0.5 1.40859 0.944345 -0.5 
1.40985 0.939517 -0.5 1.41113 0.934583 -0.5 1.41244 0.929537 -0.5 
1.41378 0.924375 -0.5 1.41514 0.919097 -0.5 1.41652 0.913705 -0.5 
1.41793 0.9082 -0.5 1.41937 0.902587 -0.5 1.42083 0.896873 -0.5 
1.42231 0.891064 -0.5 1.3908 0.982719 -0.5 1.39218 0.97797 -0.5 
1.39352 0.97331 -0.5 1.39482 0.968703 -0.5 1.3961 0.96412 -0.5 
1.39737 0.959535 -0.5 1.39863 0.954926 -0.5 1.39988 0.950271 -0.5 
1.40115 0.945555 -0.5 1.40242 0.940763 -0.5 1.40371 0.935884 -0.5 
1.40501 0.930909 -0.5 1.40634 0.925831 -0.5 1.40768 0.920646 -0.5 
1.40906 0.915352 -0.5 1.41045 0.909949 -0.5 1.41187 0.904438 -0.5 
1.41331 0.898822 -0.5 1.41478 0.893108 -0.5 1.41627 0.887301 -0.5 
1.3836 0.980221 -0.5 1.38508 0.975206 -0.5 1.3865 0.970315 -0.5 
1.38788 0.965511 -0.5 1.38922 0.96076 -0.5 1.39054 0.956031 -0.5 
1.39184 0.9513 -0.5 1.39314 0.946543 -0.5 1.39444 0.941743 -0.5 
1.39574 0.936881 -0.5 1.39705 0.931946 -0.5 1.39838 0.926926 -0.5 
1.39972 0.921814 -0.5 1.40108 0.916603 -0.5 1.40247 0.911291 -0.5 
1.40387 0.905876 -0.5 1.4053 0.900358 -0.5 1.40675 0.89474 -0.5 
1.40823 0.889026 -0.5 1.40972 0.883221 -0.5 1.37582 0.977518 -0.5 
1.3774 0.972215 -0.5 1.37891 0.967076 -0.5 1.38036 0.962058 -0.5 
1.38177 0.957124 -0.5 1.38315 0.95224 -0.5 1.3845 0.947376 -0.5 
1.38584 0.942509 -0.5 1.38717 0.937616 -0.5 1.38851 0.932679 -0.5 
1.38985 0.927683 -0.5 1.3912 0.922615 -0.5 1.39256 0.917466 -0.5 
1.39393 0.912227 -0.5 1.39533 0.906895 -0.5 1.39675 0.901467 -0.5 
1.39819 0.895941 -0.5 1.39965 0.89032 -0.5 1.40113 0.884605 -0.5 
1.40263 0.878802 -0.5 1.3674 0.974599 -0.5 1.3691 0.968984 -0.5 
1.3707 0.963576 -0.5 1.37224 0.958327 -0.5 1.37372 0.953195 -0.5 
1.37516 0.948142 -0.5 1.37657 0.943136 -0.5 1.37795 0.938149 -0.5 
1.37933 0.933157 -0.5 1.38069 0.928138 -0.5 1.38206 0.923076 -0.5 
1.38343 0.917955 -0.5 1.38481 0.912765 -0.5 1.38621 0.907496 -0.5 
1.38762 0.902142 -0.5 1.38905 0.896699 -0.5 1.39049 0.891165 -0.5 
1.39196 0.88554 -0.5 1.39345 0.879825 -0.5 1.39496 0.874024 -0.5 
1.35833 0.97145 -0.5 1.36014 0.965499 -0.5 1.36185 0.959801 -0.5 
1.36348 0.954302 -0.5 1.36504 0.948956 -0.5 1.36654 0.943721 -0.5 
1.36801 0.938561 -0.5 1.36945 0.933445 -0.5 1.37086 0.928345 -0.5 
1.37226 0.923238 -0.5 1.37366 0.918103 -0.5 1.37506 0.912926 -0.5 
1.37646 0.907691 -0.5 1.37787 0.902389 -0.5 1.3793 0.897012 -0.5 
1.38074 0.891553 -0.5 1.38219 0.886009 -0.5 1.38367 0.88038 -0.5 
1.38516 0.874665 -0.5 1.38668 0.868865 -0.5 1.34856 0.968058 -0.5 
1.3505 0.961746 -0.5 1.35232 0.955735 -0.5 1.35404 0.949967 -0.5 
1.35569 0.944391 -0.5 1.35726 0.938959 -0.5 1.35879 0.933633 -0.5 
1.36028 0.928377 -0.5 1.36174 0.923161 -0.5 1.36318 0.917958 -0.5 
1.36461 0.912746 -0.5 1.36603 0.907507 -0.5 1.36746 0.902224 -0.5 
1.36889 0.896886 -0.5 1.37033 0.891483 -0.5 1.37178 0.886007 -0.5 
1.37325 0.880453 -0.5 1.37473 0.874818 -0.5 1.37623 0.869102 -0.5 
1.37775 0.863304 -0.5 1.33806 0.964413 -0.5 1.34013 0.957711 -0.5 
1.34207 0.951364 -0.5 1.3439 0.945306 -0.5 1.34563 0.939482 -0.5 
1.34729 0.933839 -0.5 1.34888 0.928334 -0.5 1.35043 0.922927 -0.5 
1.35193 0.917585 -0.5 1.35342 0.912279 -0.5 1.35488 0.906984 -0.5 
1.35633 0.901678 -0.5 1.35778 0.896344 -0.5 1.35923 0.890967 -0.5 
1.36068 0.885535 -0.5 1.36214 0.88004 -0.5 1.36362 0.874475 -0.5 
1.36511 0.868835 -0.5 1.36662 0.863118 -0.5 1.36815 0.857321 -0.5 
1.32679 0.960502 -0.5 1.32901 0.953381 -0.5 1.33108 0.946673 -0.5 
1.33302 0.940305 -0.5 1.33484 0.934214 -0.5 1.33658 0.928344 -0.5 
1.33825 0.922646 -0.5 1.33985 0.917077 -0.5 1.34141 0.911601 -0.5 
1.34293 0.906184 -0.5 1.34443 0.900799 -0.5 1.34591 0.895421 -0.5 
1.34738 0.890031 -0.5 1.34885 0.884612 -0.5 1.35032 0.87915 -0.5 
1.3518 0.873634 -0.5 1.35329 0.868057 -0.5 1.35479 0.86241 -0.5 
1.3563 0.856692 -0.5 1.35784 0.850897 -0.5 1.31472 0.956314 -0.5 
1.3171 0.948746 -0.5 1.31931 0.94165 -0.5 1.32136 0.934949 -0.5 
1.32329 0.928572 -0.5 1.32512 0.922458 -0.5 1.32685 0.916554 -0.5 
1.32852 0.910812 -0.5 1.33013 0.905191 -0.5 1.3317 0.899655 -0.5 
1.33324 0.894173 -0.5 1.33475 0.888718 -0.5 1.33625 0.883268 -0.5 
1.33774 0.877803 -0.5 1.33923 0.872309 -0.5 1.34072 0.866771 -0.5 
1.34222 0.861179 -0.5 1.34372 0.855526 -0.5 1.34525 0.849806 -0.5 
1.34679 0.844012 -0.5 1.30183 0.95184 -0.5 1.30438 0.943792 -0.5 
1.30673 0.936283 -0.5 1.30891 0.929225 -0.5 1.31095 0.922543 -0.5 
1.31286 0.916169 -0.5 1.31468 0.910044 -0.5 1.31642 0.904116 -0.5 
1.31809 0.89834 -0.5 1.31971 0.892676 -0.5 1.32128 0.887091 -0.5 
1.32283 0.881553 -0.5 1.32435 0.876038 -0.5 1.32586 0.870525 -0.5 
1.32737 0.864995 -0.5 1.32887 0.859433 -0.5 1.33038 0.853827 -0.5 
1.3319 0.848167 -0.5 1.33343 0.842444 -0.5 1.33497 0.836652 -0.5 
1.28809 0.947072 -0.5 1.29082 0.938513 -0.5 1.29332 0.930562 -0.5 
1.29563 0.923123 -0.5 1.29779 0.916115 -0.5 1.2998 0.909463 -0.5 
1.30171 0.903102 -0.5 1.30351 0.896976 -0.5 1.30524 0.891035 -0.5 
1.30691 0.885235 -0.5 1.30853 0.879538 -0.5 1.31011 0.873912 -0.5 
1.31166 0.868329 -0.5 1.3132 0.862763 -0.5 1.31472 0.857195 -0.5 
1.31624 0.851608 -0.5 1.31776 0.845986 -0.5 1.31928 0.840317 -0.5 
1.32082 0.834592 -0.5 1.32237 0.828801 -0.5 1.27349 0.942002 -0.5 
1.2764 0.932899 -0.5 1.27906 0.924478 -0.5 1.28152 0.916635 -0.5 
1.28379 0.909279 -0.5 1.28591 0.902331 -0.5 1.2879 0.895719 -0.5 
[...]
POINT_DATA 49500
FIELD FieldData 5
pressure 1 49500 float
0.358917 0.33837 0.352951 0.373632 0.396021 0.409286 0.415888 0.416628 0.417774 
0.421837 0.429127 0.437305 0.443899 0.448752 0.455517 0.470251 0.493069 0.52771 
0.577993 0.582179 0.291988 0.301215 0.311118 0.324171 0.344137 0.359896 0.366036 
0.36227 0.360105 0.36073 0.363989 0.367568 0.370406 0.372826 0.374152 0.375249 
0.376898 0.379696 0.384479 0.377196 0.291746 0.300951 0.308464 0.317733 0.33465 
0.352446 0.362365 0.360646 0.360085 0.360878 0.363358 0.36654 0.369449 0.372104 
0.373413 0.374257 0.375682 0.37852 0.383089 0.376145 0.292431 0.300783 0.306509 
0.311867 0.324109 0.342403 0.357351 0.359221 0.360984 0.361831 0.363215 0.365807 
0.368961 0.371765 0.373189 0.374004 0.375589 0.378596 0.383248 0.376471 0.29201 
0.299906 0.304408 0.306407 0.313939 0.330644 0.349858 0.357408 0.362282 0.362735 
0.362782 0.364935 0.368147 0.371151 0.372622 0.373708 0.375551 0.378815 0.38344 
0.376698 0.290131 0.297997 0.301343 0.30095 0.305119 0.319322 0.340134 0.355425 
0.363736 0.363297 0.362477 0.364136 0.367242 0.370234 0.371949 0.373447 0.375712 
0.379053 0.38364 0.376902 0.286427 0.293802 0.297135 0.296309 0.298859 0.309963 
0.329015 0.350444 0.363677 0.363018 0.36227 0.363631 0.366083 0.368973 0.371118 
0.373359 0.37596 0.379381 0.383762 0.377094 0.279682 0.287044 0.291623 0.292911 
0.295406 0.303411 0.318531 0.342729 0.360868 0.362038 0.36235 0.363268 0.364677 
0.367318 0.370408 0.373344 0.376317 0.379588 0.383829 0.377233 0.269607 0.2781 
0.285862 0.291007 0.293821 0.299846 0.310186 0.331561 0.353764 0.359707 0.362595 
0.362706 0.363272 0.365752 0.36984 0.373409 0.376474 0.37971 0.383707 0.377381 
0.256647 0.268055 0.279979 0.289833 0.293573 0.297964 0.304636 0.319861 0.341528 
0.355647 0.362297 0.361965 0.362329 0.364711 0.369466 0.373189 0.37643 0.379567 
0.383561 0.377495 0.239997 0.257256 0.273875 0.28774 0.293351 0.297146 0.300717 
0.309356 0.326943 0.34673 0.360383 0.360934 0.362429 0.3644 0.368729 0.37254 
0.375929 0.379282 0.383254 0.377636 0.221564 0.245882 0.267579 0.283119 0.291883 
0.295787 0.296677 0.301448 0.314136 0.334309 0.354328 0.36011 0.363257 0.364457 
0.367515 0.371208 0.375093 0.378681 0.382897 0.377726 0.205151 0.233412 0.260674 
0.275378 0.287883 0.29305 0.29318 0.296543 0.30546 0.321165 0.343662 0.357712 
0.363869 0.364275 0.36608 0.369352 0.37374 0.377844 0.382249 0.377815 0.193122 
0.219479 0.25281 0.265909 0.279865 0.289036 0.291545 0.294693 0.300577 0.31088 
0.32942 0.350219 0.362374 0.363753 0.364815 0.367314 0.371918 0.376429 0.381358 
0.37782 0.185992 0.205338 0.242694 0.256231 0.269959 0.28392 0.291505 0.294265 
0.298021 0.30415 0.31637 0.336478 0.355684 0.362144 0.363909 0.365884 0.369574 
0.374449 0.380097 0.377868 0.182232 0.193771 0.229407 0.24761 0.261451 0.277441 
0.291341 0.293702 0.296394 0.300431 0.307327 0.321624 0.341901 0.35687 0.362993 
0.364714 0.367347 0.372074 0.378719 0.377873 0.180324 0.186086 0.214404 0.239657 
0.255418 0.269392 0.286682 0.292012 0.295325 0.298289 0.301937 0.310324 0.325815 
0.345827 0.359501 0.363234 0.365857 0.370339 0.377264 0.377761 0.179322 0.181877 
0.20003 0.231908 0.251484 0.261324 0.276901 0.288798 0.294525 0.296387 0.298623 
0.303291 0.313085 0.330178 0.349501 0.360301 0.366131 0.369636 0.37533 0.377203 
0.178857 0.18003 0.18909 0.221648 0.248074 0.255185 0.265837 0.281697 0.292191 
0.294369 0.296571 0.299748 0.305507 0.316817 0.33399 0.352086 0.363036 0.368165 
0.373343 0.376295 0.178644 0.179176 0.183238 0.207171 0.244355 0.250193 0.257556 
0.270897 0.287029 0.293024 0.295593 0.29823 0.30194 0.30854 0.32005 0.336888 
0.353867 0.364926 0.371817 0.374698 0.178566 0.17879 0.180474 0.194446 0.23445 
0.246626 0.253079 0.261266 0.278463 0.290821 0.29469 0.297362 0.299974 0.30427 
0.311024 0.322583 0.339363 0.355047 0.367506 0.37302 0.178545 0.178636 0.179366 
0.185801 0.219503 0.243043 0.251089 0.256313 0.26789 0.284712 0.293529 0.296247 
0.29864 0.301976 0.306328 0.313049 0.324499 0.340192 0.357778 0.369044 0.178549 
0.178575 0.178859 0.181495 0.203649 0.238165 0.249944 0.253599 0.259736 0.2743 
0.289349 0.294964 0.29767 0.300494 0.303534 0.307852 0.314529 0.325657 0.342845 
0.359551 0.178562 0.178561 0.178659 0.179706 0.190719 0.229643 0.248367 0.251894 
0.255407 0.263871 0.279939 0.292575 0.2967 0.299128 0.301553 0.304884 0.309555 
0.316739 0.329222 0.344891 0.178575 0.178559 0.178587 0.179005 0.183654 0.215033 
0.246848 0.250957 0.253385 0.25744 0.268328 0.284602 0.294618 0.297816 0.300211 
0.303247 0.30707 0.312204 0.320716 0.33265 0.178579 0.178564 0.178567 0.178706 
0.180464 0.199909 0.241612 0.249183 0.251836 0.254497 0.260591 0.273367 0.288923 
0.296711 0.299574 0.302303 0.305502 0.309675 0.315826 0.324455 0.178577 0.178571 
0.178563 0.178609 0.179291 0.1884 0.230836 0.247135 0.251066 0.253445 0.257067 
0.264174 0.278013 0.291611 0.298237 0.301236 0.30405 0.308087 0.313426 0.320067 
0.178574 0.178577 0.178565 0.178571 0.178833 0.182552 0.215121 0.244651 0.250821 
0.253016 0.255652 0.259679 0.267798 0.282059 0.293946 0.299723 0.30296 0.307167 
0.31249 0.317139 0.178573 0.178577 0.178568 0.178568 0.178634 0.179948 0.1995 
0.239669 0.250181 0.252648 0.254915 0.257707 0.26206 0.270994 0.284938 0.296493 
0.301594 0.30602 0.31068 0.315162 0.178573 0.178575 0.178573 0.178567 0.178587 
0.179076 0.187694 0.230805 0.2487 0.252028 0.254337 0.25676 0.259646 0.26447 
0.274203 0.288338 0.297872 0.304384 0.308675 0.314479 0.178574 0.178572 0.178576 
0.178569 0.178568 0.178736 0.182029 0.2158 0.246901 0.251733 0.254034 0.256243 
0.258626 0.261579 0.266997 0.277158 0.290142 0.300698 0.30707 0.31299 0.178573 
0.178572 0.178576 0.178569 0.178572 0.178601 0.179711 0.200389 0.243067 0.250629 
0.253173 0.255342 0.257797 0.260273 0.263822 0.269993 0.280231 0.292718 0.303007 
0.310378 0.178572 0.178573 0.178574 0.178574 0.17857 0.178577 0.17897 0.188265 
0.234689 0.249123 0.252373 0.254669 0.257355 0.25986 0.262711 0.266862 0.273599 
0.283444 0.295843 0.305132 0.178573 0.178574 0.178572 0.178575 0.178571 0.178567 
0.1787 0.182147 0.220747 0.247495 0.251993 0.254281 0.256973 0.259658 0.262357 
0.265644 0.270469 0.277442 0.28769 0.296837 0.178573 0.178573 0.178572 0.178576 
0.17857 0.178573 0.178588 0.179726 0.204831 0.244123 0.251477 0.253969 0.25659 
0.259428 0.262132 0.265132 0.269051 0.274289 0.282129 0.288255 0.178573 0.178573 
0.178573 0.178573 0.178574 0.178571 0.178576 0.178933 0.191259 0.23799 0.250722 
0.253733 0.256211 0.259065 0.261804 0.264739 0.268348 0.272801 0.279001 0.281581 
0.178573 0.178573 0.178573 0.178572 0.178574 0.178572 0.178567 0.1787 0.183266 
0.227777 0.249249 0.253103 0.255661 0.258556 0.261399 0.264367 0.267946 0.272167 
0.277562 0.277294 0.178573 0.178573 0.178573 0.178572 0.178575 0.17857 0.178574 
0.178587 0.180149 0.212705 0.2472 0.252666 0.255292 0.258128 0.26108 0.264015 
0.267558 0.271715 0.276983 0.276056 0.178573 0.178573 0.178573 0.178573 0.178574 
0.178573 0.178573 0.178577 0.179015 0.198557 0.243693 0.251839 0.25479 0.257514 
0.260566 0.263529 0.267107 0.271255 0.276532 0.275798 0.178573 0.178573 0.178573 
0.178573 0.178573 0.178574 0.178573 0.178569 0.178725 0.187454 0.236947 0.250724 
0.254245 0.256959 0.260136 0.263195 0.266847 0.271035 0.276264 0.275573 0.178573 
0.178573 0.178573 0.178574 0.178572 0.178575 0.178572 0.178571 0.178616 0.181674 
0.225863 0.249305 0.253769 0.256566 0.259792 0.262926 0.266588 0.270848 0.276084 
0.27551 0.178573 0.178573 0.178573 0.178573 0.178572 0.178575 0.178569 0.178578 
0.178568 0.179571 0.211955 0.247146 0.253134 0.256015 0.259323 0.262636 0.266343 
0.270697 0.275991 0.27548 0.178573 0.178573 0.178573 0.178573 0.178573 0.178573 
0.178573 0.178572 0.178576 0.178843 0.198904 0.243844 0.252404 0.255564 0.25891 
0.262436 0.266173 0.270565 0.275862 0.275355 0.178573 0.178573 0.178573 0.178573 
0.178573 0.178573 0.178573 0.178574 0.178571 0.178688 0.188483 0.238438 0.251564 
0.255172 0.258449 0.262138 0.265907 0.270304 0.275574 0.275191 0.178573 0.178573 
0.178573 0.178573 0.178574 0.178572 0.178575 0.178571 0.178571 0.178604 0.182343 
0.230205 0.250541 0.254669 0.257873 0.261646 0.265523 0.26999 0.275298 0.27505 
0.178573 0.178573 0.178573 0.178573 0.178573 0.178572 0.178576 0.178568 0.178579 
0.178567 0.179921 0.218786 0.248972 0.253992 0.25727 0.261144 0.265187 0.269754 
0.275176 0.274961 0.178573 0.178573 0.178573 0.178573 0.178573 0.178573 0.178573 
0.178572 0.178574 0.178576 0.179019 0.206942 0.247033 0.253571 0.256925 0.260725 
0.26484 0.269396 0.274978 0.274818 0.178573 0.178573 0.178573 0.178573 0.178573 
0.178573 0.178573 0.178573 0.178572 0.178577 0.178745 0.196648 0.244348 0.252833 
0.256274 0.259998 0.264284 0.26887 0.274646 0.274715 0.178573 0.178573 0.178573 
0.178573 0.178573 0.178573 0.178573 0.178573 0.178573 0.178572 0.17865 0.188091 
0.240071 0.251986 0.255893 0.259565 0.264005 0.268591 0.274431 0.274701 0.178573 
0.178573 0.178573 0.178573 0.178573 0.178574 0.178572 0.178575 0.178571 0.178574 
0.178595 0.182493 0.233732 0.25144 0.255687 0.259218 0.263711 0.268288 0.274091 
0.274506 0.178573 0.178573 0.178573 0.178573 0.178573 0.178574 0.178571 0.178577 
0.178566 0.178583 0.178555 0.180034 0.225838 0.250365 0.255091 0.258573 0.263147 
0.267845 0.273713 0.274385 0.178573 0.178573 0.178573 0.178573 0.178573 0.178573 
0.178572 0.178575 0.178568 0.178582 0.178562 0.179238 0.216405 0.249186 0.254701 
0.258136 0.262666 0.26749 0.273397 0.274362 0.178573 0.178573 0.178573 0.178573 
0.178573 0.178573 0.178573 0.178574 0.178571 0.178576 0.178574 0.178937 0.206579 
0.24746 0.254561 0.257952 0.262272 0.267117 0.272989 0.2742 0.178573 0.178573 
0.178573 0.178573 0.178573 0.178573 0.178573 0.178574 0.178572 0.178575 0.178574 
0.178776 0.197482 0.245159 0.254206 0.257626 0.261808 0.266693 0.272545 0.273996 
0.178573 0.178573 0.178573 0.178573 0.178573 0.178573 0.178573 0.178574 0.178572 
0.178575 0.178573 0.178667 0.189323 0.241561 0.253605 0.257421 0.261517 0.26643 
0.272205 0.273832 0.178573 0.178573 0.178573 0.178573 0.178573 0.178573 0.178574 
0.178572 0.178573 0.178573 0.178574 0.178601 0.183246 0.235987 0.252942 0.257328 
0.261361 0.266211 0.271781 0.273528 0.178573 0.178573 0.178573 0.178573 0.178573 
0.178573 0.178574 0.178571 0.178576 0.178567 0.178584 0.178549 0.180242 0.22815 
0.251788 0.256825 0.260915 0.265868 0.271291 0.273203 0.178573 0.178573 0.178573 
0.178573 0.178573 0.178573 0.178574 0.178572 0.178576 0.178567 0.178586 0.178551 
0.179267 0.21758 0.250315 0.256186 0.260482 0.2657 0.271109 0.273066 0.178573 
0.178573 0.178573 0.178573 0.178573 0.178573 0.178573 0.178572 0.178574 0.17857 
0.17858 0.178565 0.178992 0.206686 0.248532 0.255714 0.260143 0.265534 0.271078 
0.272816 0.178573 0.178573 0.178573 0.178573 0.178573 0.178573 0.178573 0.178573 
0.178573 0.178572 0.178576 0.17857 0.178778 0.197055 0.246036 0.254989 0.259494 
0.264997 0.27091 0.272415 0.178573 0.178573 0.178573 0.178573 0.178573 0.178573 
0.178573 0.178573 0.178573 0.178573 0.178575 0.178569 0.178665 0.188509 0.242292 
0.25389 0.25896 0.264385 0.270827 0.272306 0.178573 0.178573 0.178573 0.178573 
0.178573 0.178573 0.178573 0.178574 0.178572 0.178574 0.178574 0.17857 0.178603 
0.182554 0.236134 0.252914 0.258514 0.263765 0.270556 0.272261 0.178573 0.178573 
0.178573 0.178573 0.178573 0.178573 0.178573 0.178574 0.178571 0.178576 0.178568 
0.178581 0.178548 0.179956 0.226947 0.251854 0.257888 0.262925 0.26991 0.272009 
0.178573 0.178573 0.178573 0.178573 0.178573 0.178573 0.178573 0.178574 0.178571 
0.178576 0.178568 0.178582 0.178556 0.179201 0.215617 0.250421 0.25736 0.262309 
0.269349 0.271829 0.178573 0.178573 0.178573 0.178573 0.178573 0.178573 0.178573 
0.178574 0.178572 0.178575 0.178571 0.178577 0.178567 0.178977 0.204622 0.248246 
0.256912 0.261831 0.268706 0.271685 0.178573 0.178573 0.178573 0.178573 0.178573 
0.178573 0.178573 0.178573 0.178572 0.178574 0.178571 0.178574 0.178572 0.178746 
0.194544 0.244932 0.256583 0.261353 0.267856 0.271496 0.178573 0.178573 0.178573 
0.178573 0.178573 0.178573 0.178573 0.178573 0.178572 0.178574 0.178572 0.178573 
0.178574 0.178648 0.186155 0.239949 0.256442 0.261373 0.267291 0.271281 0.178573 
0.178573 0.178573 0.178573 0.178573 0.178573 0.178573 0.178573 0.178573 0.178572 
0.178574 0.178569 0.17858 0.178569 0.181486 0.233304 0.255187 0.261242 0.266854 
0.270783 0.178573 0.178573 0.178573 0.178573 0.178573 0.178573 0.178573 0.178573 
0.178573 0.178572 0.178577 0.178564 0.178592 0.178521 0.179783 0.223473 0.253616 
0.260502 0.266434 0.270553 0.178573 0.178573 0.178573 0.178573 0.178573 0.178573 
0.178573 0.178573 0.178573 0.178572 0.178576 0.178564 0.178594 0.178512 0.179335 
0.212423 0.252257 0.259799 0.26605 0.270649 0.178573 0.178573 0.178573 0.178573 
0.178573 0.178573 0.178573 0.178573 0.178573 0.178572 0.178576 0.178564 0.178595 
0.178513 0.179155 0.204529 0.251499 0.259423 0.265702 0.270544 0.178573 0.178573 
0.178573 0.178573 0.178573 0.178573 0.178573 0.178573 0.178573 0.178572 0.178576 
0.178564 0.178595 0.178516 0.179132 0.202313 0.251258 0.259228 0.265407 0.270092 
0.178573 0.178573 0.178573 0.178573 0.178573 0.178573 0.178573 0.178573 0.178573 
0.178572 0.178576 0.178564 0.178595 0.178519 0.179063 0.20012 0.250913 0.258943 
0.265065 0.26975 0.178573 0.178573 0.178573 0.178573 0.178573 0.178573 0.178573 
0.178573 0.178573 0.178572 0.178576 0.178564 0.178595 0.178523 0.179019 0.198111 
0.250753 0.25878 0.264542 0.269085 0.178573 0.178573 0.178573 0.178573 0.178573 
0.178573 0.178573 0.178573 0.178573 0.178572 0.178575 0.178565 0.178595 0.178527 
0.178963 0.195904 0.250556 0.258871 0.264222 0.268312 0.178573 0.178573 0.178573 
0.178573 0.178573 0.178573 0.178573 0.178573 0.178573 0.178572 0.178575 0.178565 
0.178594 0.178531 0.178915 0.193622 0.250223 0.259071 0.264306 0.267859 0.178573 
0.178573 0.178573 0.178573 0.178573 0.178573 0.178573 0.178573 0.178573 0.178573 
0.178575 0.178566 0.178595 0.178533 0.178865 0.191227 0.249653 0.259037 0.264363 
0.26761 0.178573 0.178573 0.178573 0.178573 0.178573 0.178573 0.178573 0.178573 
0.178573 0.178573 0.178575 0.178566 0.178595 0.178534 0.17882 0.188896 0.24894 
0.258881 0.264207 0.267141 0.178573 0.178573 0.178573 0.178573 0.178573 0.178573 
0.178573 0.178573 0.178573 0.178573 0.178575 0.178566 0.178594 0.178535 0.178781 
0.186724 0.248007 0.258596 0.26403 0.26648 0.178573 0.178573 0.178573 0.178573 
0.178573 0.178573 0.178573 0.178573 0.178573 0.178573 0.178574 0.178567 0.178593 
0.178535 0.17876 0.184952 0.247044 0.258112 0.263677 0.26573 0.178573 0.178573 
0.178573 0.178573 0.178573 0.178573 0.178573 0.178573 0.178573 0.178573 0.178574 
0.178568 0.178591 0.178533 0.178742 0.183416 0.245381 0.257887 0.262995 0.264842 
0.178573 0.178573 0.178573 0.178573 0.178573 0.178573 0.178573 0.178573 0.178573 
0.178573 0.178574 0.178569 0.178588 0.178537 0.178705 0.182274 0.241802 0.257837 
0.262613 0.263979 0.178573 0.178573 0.178573 0.178573 0.178573 0.178573 0.178573 
0.178573 0.178573 0.178573 0.178574 0.17857 0.178585 0.178543 0.17869 0.181767 
0.236653 0.25786 0.262701 0.26351 0.178573 0.178573 0.178573 0.178573 0.178573 
0.178573 0.178573 0.178573 0.178573 0.178573 0.178574 0.178571 0.178582 0.178547 
0.178681 0.181537 0.232288 0.257792 0.261908 0.262321 0.178573 0.178573 0.178573 
0.178573 0.178573 0.178573 0.178573 0.178573 0.178573 0.178573 0.178573 0.178571 
0.178579 0.178554 0.178663 0.181237 0.227872 0.256808 0.261786 0.260418 0.178573 
0.178573 0.178573 0.178573 0.178573 0.178573 0.178573 0.178573 0.178573 0.178573 
0.178573 0.178572 0.178577 0.17856 0.178643 0.180905 0.221985 0.2559 0.261229 
0.258916 0.178573 0.178573 0.178573 0.178573 0.178573 0.178573 0.178573 0.178573 
0.178573 0.178573 0.178573 0.178573 0.178575 0.178566 0.178618 0.180499 0.215328 
0.255238 0.260769 0.257631 0.178573 0.178573 0.178573 0.178573 0.178573 0.178573 
0.178573 0.178573 0.178573 0.178573 0.178573 0.178573 0.178573 0.178575 0.178579 
0.180089 0.208009 0.254306 0.260293 0.256854 0.178573 0.178573 0.178573 0.178573 
0.178573 0.178573 0.178573 0.178573 0.178573 0.178573 0.178573 0.178574 0.178571 
0.178583 0.178547 0.179673 0.200303 0.252584 0.259342 0.256114 0.178573 0.178573 
0.178573 0.178573 0.178573 0.178573 0.178573 0.178573 0.178573 0.178573 0.178573 
0.178574 0.17857 0.178586 0.178537 0.179311 0.192741 0.249504 0.257405 0.254871 
0.178573 0.178573 0.178573 0.178573 0.178573 0.178573 0.178573 0.178573 0.178573 
0.178573 0.178573 0.178574 0.178571 0.178585 0.178542 0.179076 0.187078 0.243583 
0.253911 0.252624 0.178573 0.178573 0.178573 0.178573 0.178573 0.178573 0.178573 
0.178573 0.178573 0.178573 0.178573 0.178574 0.178571 0.178583 0.178548 0.178927 
0.183993 0.232559 0.250898 0.2509 0.178573 0.178573 0.178573 0.178573 0.178573 
0.178573 0.178573 0.178573 0.178573 0.178573 0.178573 0.178573 0.178571 0.17858 
0.178556 0.178815 0.182258 0.218129 0.246006 0.249117 0.178573 0.178573 0.178573 
0.178573 0.178573 0.178573 0.178573 0.178573 0.178573 0.178573 0.178573 0.178573 
0.178572 0.178578 0.178565 0.178712 0.181014 0.203649 0.237424 0.24469 0.178573 
0.178573 0.178573 0.178573 0.178573 0.178573 0.178573 0.178573 0.178573 0.178573 
0.178573 0.178573 0.178573 0.178573 0.178578 0.178614 0.179998 0.191817 0.223346 
0.234853 0.178573 0.178573 0.178573 0.178573 0.178573 0.178573 0.178573 0.178573 
0.178573 0.178573 0.178573 0.178572 0.178574 0.178569 0.178587 0.178564 0.179326 
0.185295 0.208133 0.219804 0.178573 0.178573 0.178573 0.178573 0.178573 0.178573 
0.178573 0.178573 0.178573 0.178573 0.178573 0.178573 0.178573 0.178571 0.17858 
0.178569 0.178873 0.181489 0.192471 0.20982 0.178573 0.178573 0.178573 0.178573 
0.178573 0.178573 0.178573 0.178573 0.178573 0.178573 0.178573 0.178573 0.178572 
0.178574 0.178571 0.178583 0.178608 0.179385 0.182657 0.190884 0.178573 0.178573 
0.178573 0.178573 0.178573 0.178573 0.178573 0.178573 0.178573 0.178573 0.178573 
0.178573 0.178573 0.178573 0.178573 0.178573 0.17857 0.17868 0.179288 0.180995 
0.306083 0.34332 0.359992 0.376266 0.396005 0.411235 0.412593 0.404699 0.39816 
0.39633 0.396123 0.395413 0.394333 0.393102 0.390293 0.385258 0.376508 0.362015 
0.332124 0.259427 0.291043 0.299106 0.307477 0.31909 0.338675 0.357071 0.364958 
0.360278 0.357196 0.358297 0.360915 0.364459 0.367118 0.369456 0.370514 0.371095 
0.371416 0.371411 0.368607 0.332366 0.290882 0.298891 0.305403 0.313181 0.328615 
0.348274 0.361057 0.358643 0.357154 0.358183 0.360104 0.363292 0.366336 0.369026 
0.37013 0.370635 0.371039 0.371147 0.36834 0.332538 0.291424 0.299114 0.304324 
0.3086 0.318729 0.336672 0.354685 0.357526 0.358442 0.358948 0.35982 0.362414 
0.365856 0.368757 0.369902 0.370361 0.371019 0.371247 0.368508 0.333266 0.290712 
0.298555 0.302793 0.303726 0.309497 0.32468 0.34523 0.355793 0.360149 0.359866 
0.359411 0.361497 0.365111 0.368144 0.369339 0.370072 0.371036 0.371526 0.368727 
0.333923 0.288372 0.296586 0.300253 0.298883 0.301755 0.314017 0.334247 0.352998 
0.361895 0.360409 0.359174 0.360804 0.364194 0.3671 0.368616 0.369811 0.371275 
0.371867 0.368989 0.334647 0.284102 0.292329 0.296298 0.294457 0.296292 0.305599 
0.322782 0.346916 0.361245 0.360585 0.359192 0.360429 0.362872 0.365595 0.367745 
0.369731 0.371584 0.372298 0.369193 0.335392 0.277055 0.285331 0.291087 0.291225 
0.293289 0.300152 0.313432 0.337387 0.357931 0.360203 0.359586 0.360037 0.361233 
0.36377 0.367045 0.36983 0.371948 0.372603 0.369415 0.336135 0.267021 0.276107 
0.285114 0.289532 0.291939 0.297344 0.306646 0.326494 0.34918 0.358027 0.36036 
0.359351 0.359546 0.362155 0.366528 0.369995 0.372112 0.372756 0.369508 0.336958 
0.254557 0.265786 0.278663 0.288338 0.292045 0.296176 0.302182 0.315755 0.336286 
0.35276 0.360001 0.358367 0.358426 0.361182 0.366142 0.369835 0.371984 0.37266 
0.369626 0.337823 0.238398 0.255271 0.271822 0.286039 0.292134 0.296041 0.298828 
0.306042 0.321814 0.342949 0.357073 0.357428 0.358658 0.361076 0.365332 0.36906 
0.371378 0.372379 0.369668 0.338789 0.220469 0.244241 0.265519 0.281162 0.290922 