# vtk DataFile Version 5.1
vtk output
ASCII
DATASET POLYDATA
POINTS 1559 float
2.53293 0.317065 -0.5 2.53251 0.314491 -0.497 2.53202 0.311529 -0.493548 
2.54135 0.308651 -0.5 2.55185 0.298147 -0.5 2.53709 0.309911 -0.497 
2.55143 0.295567 -0.497 2.53219 0.311361 -0.493548 2.55095 0.292597 -0.493548 
2.532 0.311416 -0.493416 2.53145 0.308132 -0.489579 2.53079 0.304233 -0.485022 
2.53004 0.29976 -0.479796 2.56343 0.286567 -0.5 2.57095 0.279046 -0.5 
2.5592 0.287802 -0.497 2.57054 0.27646 -0.497 2.55433 0.289223 -0.493548 
2.57006 0.273485 -0.493548 2.56952 0.270064 -0.489579 2.55058 0.290315 -0.490895 
2.54872 0.290856 -0.489579 2.55039 0.289185 -0.489579 2.54229 0.29273 -0.485022 
2.54975 0.285274 -0.485022 2.53492 0.29488 -0.479796 2.54901 0.280788 -0.479796 
2.54816 0.275652 -0.473812 2.52948 0.296464 -0.475944 2.52917 0.294642 -0.473812 
2.52818 0.288794 -0.466971 2.52704 0.282121 -0.459165 2.60938 0.240621 -0.5 
2.58692 0.263082 -0.5 2.59015 0.259849 -0.5 2.58271 0.264288 -0.497 
2.58974 0.257258 -0.497 2.57787 0.265675 -0.493548 2.58927 0.254278 -0.493548 
2.57231 0.267271 -0.489579 2.58873 0.250851 -0.489579 2.58811 0.246916 -0.485022 
2.56921 0.268159 -0.487369 2.56592 0.269102 -0.485022 2.56888 0.26614 -0.485022 
2.55859 0.271201 -0.479796 2.56815 0.261644 -0.479796 2.55021 0.273606 -0.473812 
2.56732 0.256496 -0.473812 2.54793 0.274258 -0.472188 2.54062 0.276352 -0.466971 
2.54718 0.269789 -0.466971 2.52968 0.279486 -0.459165 2.54606 0.263102 -0.459165 
2.52674 0.280328 -0.457068 2.52574 0.274542 -0.450279 2.52425 0.265941 -0.440188 
2.61164 0.238358 -0.5 2.62858 0.221423 -0.5 2.62818 0.218816 -0.497 
2.62773 0.215816 -0.493548 2.60914 0.239059 -0.498199 2.60747 0.239526 -0.497 
2.60898 0.238022 -0.497 2.60268 0.240872 -0.493548 2.60851 0.235035 -0.493548 
2.59716 0.242419 -0.489579 2.60798 0.231601 -0.489579 2.59083 0.244196 -0.485022 
2.60736 0.227659 -0.485022 2.60666 0.223137 -0.479796 2.58781 0.245042 -0.482852 
2.58356 0.246235 -0.479796 2.58739 0.242408 -0.479796 2.57524 0.248571 -0.473812 
2.58656 0.237251 -0.473812 2.58562 0.231355 -0.466971 2.56643 0.251045 -0.467475 
2.56573 0.251242 -0.466971 2.56636 0.250613 -0.466971 2.55488 0.254288 -0.459165 
2.56525 0.243917 -0.459165 2.56398 0.236295 -0.450279 2.54505 0.257046 -0.452096 
2.54253 0.257753 -0.450279 2.54479 0.255494 -0.450279 2.52851 0.261683 -0.440188 
2.54331 0.246874 -0.440188 2.52374 0.263018 -0.436758 2.52255 0.256216 -0.428762 
2.52062 0.245246 -0.415865 2.63737 0.212628 -0.5 2.64769 0.202308 -0.5 
2.63325 0.213751 -0.497 2.6473 0.199699 -0.497 2.62851 0.215042 -0.493548 
2.64685 0.196695 -0.493548 2.64634 0.193242 -0.489579 2.62765 0.215275 -0.492925 
2.62305 0.216531 -0.489579 2.6272 0.212377 -0.489579 2.61678 0.218242 -0.485022 
2.62659 0.208431 -0.485022 2.60959 0.220203 -0.479796 2.62589 0.203905 -0.479796 
2.62509 0.198722 -0.473812 2.60634 0.221091 -0.477431 2.60136 0.222453 -0.473812 
2.60584 0.217969 -0.473812 2.59194 0.225028 -0.466971 2.6049 0.212068 -0.466971 
2.60383 0.205335 -0.459165 2.58491 0.226951 -0.461861 2.5812 0.227966 -0.459165 
2.58453 0.224635 -0.459165 2.56897 0.231312 -0.450279 2.58328 0.216999 -0.450279 
2.58186 0.208329 -0.440188 2.56341 0.232832 -0.446242 2.55508 0.235112 -0.440188 
2.56254 0.22765 -0.440188 2.56089 0.21787 -0.428762 2.54192 0.238711 -0.430631 
2.53935 0.239414 -0.428762 2.54164 0.237119 -0.428762 2.5216 0.244264 -0.415865 
2.53973 0.22613 -0.415865 2.5205 0.244565 -0.415065 2.51842 0.232943 -0.401362 
2.68553 0.164471 -0.5 2.68516 0.161843 -0.497 2.66384 0.186164 -0.5 
2.66669 0.183308 -0.5 2.65977 0.187233 -0.497 2.66631 0.180691 -0.497 
2.65508 0.188463 -0.493548 2.66587 0.177681 -0.493548 2.6497 0.189878 -0.489579 
2.66536 0.17422 -0.489579 2.66478 0.170246 -0.485022 2.64598 0.190856 -0.486836 
2.64352 0.191506 -0.485022 2.64574 0.189282 -0.485022 2.63642 0.19338 -0.479796 
2.64505 0.184746 -0.479796 2.62829 0.195525 -0.473812 2.64426 0.179552 -0.473812 
2.64336 0.173614 -0.466971 2.62474 0.196461 -0.471201 2.61899 0.197984 -0.466971 
2.62416 0.192806 -0.466971 2.60837 0.200794 -0.459165 2.6231 0.186062 -0.459165 
2.62189 0.178385 -0.450279 2.60332 0.202131 -0.455451 2.59628 0.203998 -0.450279 
2.6026 0.19768 -0.450279 2.58255 0.20764 -0.440188 2.60119 0.188997 -0.440188 
2.58178 0.207844 -0.439624 2.56699 0.211767 -0.428762 2.58022 0.198538 -0.428762 
2.56017 0.213578 -0.423748 2.54944 0.216423 -0.415865 2.55901 0.206853 -0.415865 
2.55688 0.19448 -0.401362 2.53855 0.219311 -0.407861 2.52971 0.221654 -0.401362 
2.53757 0.213787 -0.401362 2.53514 0.199981 -0.385118 2.517 0.225021 -0.392021 
2.51594 0.219181 -0.385118 2.6907 0.159302 -0.5 2.7042 0.145802 -0.5 
2.6867 0.160304 -0.497 2.70384 0.143164 -0.497 2.70342 0.140128 -0.493548 
2.70294 0.136638 -0.489579 2.685 0.160728 -0.495728 2.68209 0.161462 -0.493548 
2.68473 0.158822 -0.493548 2.67678 0.162799 -0.489579 2.68423 0.155353 -0.489579 
2.67069 0.164335 -0.485022 2.68365 0.151369 -0.485022 2.683 0.1468 -0.479796 
2.68224 0.141569 -0.473812 2.66415 0.165982 -0.480132 2.6637 0.166096 -0.479796 
2.66411 0.16569 -0.479796 2.65569 0.168125 -0.473812 2.66332 0.160489 -0.473812 
2.64653 0.170445 -0.466971 2.66243 0.154543 -0.466971 2.66141 0.147758 -0.459165 
2.64301 0.171335 -0.464345 2.63606 0.173101 -0.459165 2.64231 0.166854 -0.459165 
2.62415 0.176131 -0.450279 2.64111 0.159167 -0.450279 2.62164 0.176769 -0.448409 
2.6106 0.179585 -0.440188 2.6205 0.169687 -0.440188 2.61892 0.159843 -0.428762 
2.6001 0.182265 -0.432365 2.59526 0.183502 -0.428762 2.59959 0.179175 -0.428762 
2.59775 0.168114 -0.415865 2.57843 0.187803 -0.416233 2.57794 0.187929 -0.415865 
2.57838 0.187489 -0.415865 2.55845 0.192913 -0.401362 2.57626 0.175099 -0.401362 
2.55669 0.193363 -0.400053 2.53662 0.198495 -0.385118 2.55446 0.180654 -0.385118 
2.53495 0.198923 -0.383873 2.53238 0.184633 -0.36701 2.51326 0.204462 -0.367722 
2.51315 0.203861 -0.36701 2.51001 0.186917 -0.346925 2.74094 0.109062 -0.5 
2.74061 0.106393 -0.497 2.74023 0.103323 -0.493548 2.72027 0.129734 -0.5 
2.72241 0.127586 -0.5 2.71562 0.131377 -0.497 2.72206 0.124937 -0.497 
2.71028 0.133267 -0.493548 2.72166 0.121889 -0.493548 2.70414 0.135441 -0.489579 
2.7212 0.118384 -0.489579 2.72066 0.11436 -0.485022 2.72005 0.109745 -0.479796 
2.70284 0.1359 -0.48874 2.69795 0.137069 -0.485022 2.70238 0.132641 -0.485022 
2.69108 0.138713 -0.479796 2.70173 0.128061 -0.479796 2.68322 0.140595 -0.473812 
2.701 0.122817 -0.473812 2.70015 0.116821 -0.466971 2.68214 0.140853 -0.472993 
2.67421 0.142764 -0.466971 2.68136 0.135607 -0.466971 2.66392 0.145242 -0.459165 
2.68036 0.128806 -0.459165 2.67921 0.121065 -0.450279 2.66113 0.145915 -0.457045 
2.6522 0.148079 -0.450279 2.66023 0.14005 -0.450279 2.65889 0.131302 -0.440188 
2.63985 0.151072 -0.440922 2.63888 0.151308 -0.440188 2.63975 0.150439 -0.440188 
2.62378 0.154985 -0.428762 2.63818 0.140581 -0.428762 2.61835 0.156306 -0.424656 
2.60672 0.159146 -0.415865 2.61711 0.148756 -0.415865 2.61506 0.136301 -0.401362 
2.59667 0.1616 -0.40827 2.58752 0.163838 -0.401362 2.59567 0.155692 -0.401362 
2.59332 0.141798 -0.385118 2.57487 0.166935 -0.391805 2.56601 0.169104 -0.385118 
2.57388 0.161238 -0.385118 2.5712 0.145812 -0.36701 2.553 0.172292 -0.375292 
2.54203 0.174977 -0.36701 2.55174 0.165267 -0.36701 2.53112 0.177649 -0.358769 
2.51544 0.18148 -0.346925 2.52928 0.167644 -0.346925 2.50928 0.182987 -0.342267 
2.5065 0.168275 -0.324774 2.77872 0.0712754 -0.5 2.75156 0.0984435 -0.5 
2.75973 0.0902704 -0.5 2.74702 0.0999753 -0.497 2.75941 0.0875949 -0.497 
2.74181 0.101738 -0.493548 2.75903 0.0845163 -0.493548 2.7586 0.0809765 -0.489579 
2.75811 0.0769125 -0.485022 2.7401 0.102316 -0.492416 2.73583 0.103745 -0.489579 
2.73978 0.0998018 -0.489579 2.72898 0.106039 -0.485022 2.73926 0.095763 -0.485022 
2.72113 0.108671 -0.479796 2.73866 0.0911314 -0.479796 2.73798 0.085828 -0.473812 
2.71996 0.109061 -0.479021 2.71216 0.111648 -0.473812 2.71934 0.104474 -0.473812 
2.70193 0.115044 -0.466971 2.71852 0.0984505 -0.466971 2.71759 0.091577 -0.459165 
2.69999 0.115687 -0.465677 2.69157 0.1176 -0.459165 2.69917 0.109996 -0.459165 
2.68007 0.120211 -0.450279 2.69805 0.10223 -0.450279 2.67912 0.120426 -0.449546 
2.66699 0.123203 -0.440188 2.67789 0.112297 -0.440188 2.67639 0.102372 -0.428762 
2.65796 0.125268 -0.433228 2.65216 0.126602 -0.428762 2.65735 0.12141 -0.428762 
2.6556 0.110267 -0.415865 2.63653 0.130198 -0.416728 2.63541 0.130457 -0.415865 
2.63641 0.129456 -0.415865 2.61654 0.134818 -0.401362 2.63438 0.116987 -0.401362 
2.61488 0.135203 -0.400083 2.5954 0.139722 -0.385118 2.61273 0.122391 -0.385118 
2.59306 0.140264 -0.383324 2.5718 0.145206 -0.36701 2.59066 0.126355 -0.36701 
2.57112 0.145365 -0.366485 2.56816 0.128762 -0.346925 2.5491 0.150487 -0.349587 
2.54563 0.151294 -0.346925 2.54869 0.148235 -0.346925 2.54528 0.129498 -0.324774 
2.52707 0.155611 -0.332681 2.51677 0.158001 -0.324774 2.52582 0.14895 -0.324774 
2.50507 0.160718 -0.315788 2.5026 0.147894 -0.300497 2.7813 0.0686964 -0.5 
2.79785 0.0521492 -0.5 2.79754 0.0494562 -0.497 2.79719 0.0463575 -0.493548 
2.77853 0.0695823 -0.498112 2.7769 0.0700989 -0.497 2.77841 0.0685885 -0.497 
2.77185 0.0717024 -0.493548 2.77804 0.065504 -0.493548 2.76603 0.0735461 -0.489579 
2.77762 0.0619575 -0.489579 2.75936 0.0756628 -0.485022 2.77714 0.0578856 -0.485022 
2.77658 0.0532159 -0.479796 2.75801 0.0760908 -0.484101 2.75173 0.0780664 -0.479796 
2.75753 0.0722647 -0.479796 2.743 0.0808126 -0.473812 2.75687 0.066946 -0.473812 
2.75611 0.0608655 -0.466971 2.73756 0.0825237 -0.470084 2.73304 0.0839336 -0.466971 
2.7372 0.0797723 -0.466971 2.7217 0.0874695 -0.459165 2.73629 0.0728724 -0.459165 
2.73526 0.0650178 -0.450279 2.71722 0.0888647 -0.456085 2.70882 0.0914563 -0.450279 
2.71651 0.0837689 -0.450279 2.71528 0.0749119 -0.440188 2.69702 0.0950988 -0.442119 
2.69456 0.0956231 -0.440188 2.69677 0.0934177 -0.440188 2.68004 0.0987258 -0.428762 
[...]
POINT_DATA 1559
FIELD FieldData 5
pressure 1 1559 float
0.160898 0.161489 0.161217 0.166613 0.173341 0.164599 0.173787 0.161332 0.17372 
0.161233 0.161969 0.162726 0.163918 0.177276 0.179361 0.176426 0.17957 0.174898 
0.179481 0.179577 0.173973 0.173145 0.174078 0.169978 0.174034 0.166869 0.174448 
0.175286 0.165223 0.166023 0.168085 0.170351 0.182663 0.181486 0.181799 0.18119 
0.18187 0.180535 0.181804 0.179993 0.181763 0.181689 0.179495 0.178715 0.179385 
0.17735 0.17969 0.175902 0.179928 0.175415 0.173556 0.175739 0.171413 0.176764 
0.171072 0.173152 0.17552 0.182673 0.182581 0.182555 0.182468 0.18267 0.182634 
0.18267 0.182389 0.182565 0.182234 0.182573 0.181852 0.182626 0.182688 0.181789 
0.181559 0.181917 0.180915 0.181861 0.181981 0.18003 0.179929 0.18003 0.178824 
0.180652 0.181141 0.17789 0.177677 0.178127 0.17649 0.178906 0.176128 0.177134 
0.178655 0.182392 0.182128 0.182446 0.182087 0.182452 0.181976 0.182084 0.182486 
0.182614 0.182564 0.182643 0.182567 0.182725 0.182611 0.182671 0.182697 0.182601 
0.182691 0.182291 0.182785 0.182789 0.182213 0.182104 0.182323 0.181586 0.182292 
0.182344 0.181261 0.180615 0.1813 0.181687 0.179677 0.179551 0.179759 0.1788 
0.180652 0.178749 0.179831 0.181763 0.181716 0.181724 0.181666 0.181774 0.181642 
0.181781 0.181541 0.181985 0.181606 0.181543 0.18205 0.182095 0.182033 0.182343 
0.182105 0.182571 0.182092 0.181981 0.18264 0.182667 0.182598 0.182808 0.182582 
0.182544 0.182792 0.182725 0.182758 0.182362 0.182736 0.182352 0.182013 0.182511 
0.181856 0.181499 0.182057 0.182149 0.181078 0.18084 0.1813 0.181754 0.180571 
0.180922 0.181454 0.180734 0.181624 0.18071 0.180666 0.180671 0.181684 0.181616 
0.181635 0.181602 0.181635 0.181552 0.181647 0.181682 0.181579 0.181629 0.181645 
0.181636 0.181713 0.181505 0.181888 0.181501 0.181531 0.181989 0.182202 0.182022 
0.182463 0.181915 0.182497 0.182545 0.182325 0.182126 0.182616 0.182567 0.182565 
0.182395 0.182495 0.182489 0.182495 0.182195 0.182295 0.182164 0.181815 0.182083 
0.181786 0.181845 0.18148 0.181491 0.181644 0.181334 0.181356 0.181202 0.180973 
0.181012 0.180885 0.181002 0.180748 0.180922 0.180695 0.181035 0.181149 0.18115 
0.18069 0.18096 0.180783 0.181282 0.180826 0.181533 0.180873 0.181023 0.181587 
0.181575 0.181669 0.181538 0.181645 0.181567 0.18149 0.18158 0.181392 0.181379 
0.181706 0.181718 0.181694 0.182005 0.181704 0.182093 0.182261 0.182048 0.181926 
0.182336 0.182343 0.182262 0.182037 0.182239 0.182199 0.182148 0.18194 0.182075 
0.181995 0.181978 0.181893 0.18176 0.181796 0.181692 0.181617 0.182202 0.181523 
0.181681 0.181471 0.18171 0.181233 0.18161 0.1818 0.181812 0.18128 0.181376 
0.18147 0.181284 0.181475 0.181178 0.181619 0.181798 0.181177 0.181176 0.181366 
0.18106 0.181452 0.181479 0.181026 0.181264 0.181058 0.181541 0.181154 0.181572 
0.181474 0.181662 0.181696 0.181417 0.1815 0.181457 0.181392 0.181691 0.181708 
0.181693 0.181887 0.181475 0.181894 0.181985 0.181561 0.181997 0.181931 0.181617 
0.181932 0.181562 0.18181 0.1818 0.181768 0.181446 0.181713 0.181674 0.181604 
0.181604 0.181472 0.182288 0.182821 0.182824 0.182755 0.182207 0.182177 0.182216 
0.181954 0.182136 0.18196 0.182215 0.181843 0.182333 0.182474 0.181853 0.181909 
0.182046 0.181879 0.182085 0.182151 0.181788 0.18171 0.181776 0.18159 0.181927 
0.182045 0.181552 0.181478 0.181671 0.181714 0.18129 0.181348 0.181318 0.181613 
0.181324 0.181657 0.181457 0.18155 0.181327 0.18129 0.181304 0.181193 0.180954 
0.18129 0.181312 0.181162 0.180852 0.181339 0.181366 0.181164 0.181436 0.181429 
0.181205 0.181461 0.181422 0.181169 0.181426 0.181087 0.181395 0.181408 0.181314 
0.181414 0.181268 0.183234 0.183597 0.183093 0.183639 0.182863 0.183531 0.18359 
0.182778 0.182726 0.182803 0.182663 0.182961 0.182582 0.183036 0.183093 0.18248 
0.1824 0.182485 0.18229 0.182618 0.182687 0.182245 0.182223 0.182309 0.182096 
0.182299 0.182227 0.18202 0.181841 0.181951 0.18189 0.181644 0.181528 0.181605 
0.181568 0.181238 0.181259 0.181219 0.181325 0.181161 0.181326 0.180969 0.181219 
0.180944 0.180851 0.180828 0.180848 0.180695 0.180868 0.180872 0.180828 0.180607 
0.180972 0.180972 0.180861 0.181023 0.181021 0.180838 0.181033 0.180773 0.181034 
0.181072 0.180978 0.181139 0.180941 0.185631 0.184516 0.184579 0.184363 0.184617 
0.18401 0.184531 0.18381 0.184546 0.18474 0.183716 0.1837 0.18375 0.183467 
0.183797 0.183242 0.183909 0.184023 0.183145 0.183049 0.18322 0.182814 0.183265 
0.183267 0.182676 0.182537 0.182673 0.182228 0.182708 0.182227 0.181979 0.182285 
0.181897 0.181711 0.181909 0.181561 0.181354 0.181543 0.181127 0.181138 0.181082 
0.18114 0.180933 0.181073 0.180757 0.180683 0.180698 0.180642 0.180597 0.180565 
0.180592 0.180472 0.180655 0.180658 0.180611 0.180694 0.180706 0.180581 0.180717 
0.180516 0.180703 0.18074 0.180651 0.180812 0.180614 0.185825 0.186903 0.187 
0.185692 0.18567 0.1857 0.185366 0.185673 0.185107 0.185707 0.184965 0.185918 
0.185926 0.184744 0.184624 0.184757 0.184394 0.18493 0.184079 0.185043 0.184026 
0.183692 0.184073 0.183272 0.184133 0.183267 0.182921 0.183376 0.182728 0.182567 
0.182766 0.182789 0.18228 0.182213 0.182286 0.182191 0.181859 0.181836 0.181858 
0.181694 0.181467 0.181438 0.181465 0.181346 0.180994 0.18099 0.180989 0.180962 
0.180958 0.180864 0.180945 0.180636 0.180583 0.180636 0.180527 0.180471 0.180529 
0.180455 0.180427 0.18046 0.180461 0.180448 0.18047 0.180475 0.18042 0.180477 
0.180361 0.180433 0.180468 0.180381 0.180502 0.180322 0.18734 0.188475 0.187156 
0.188591 0.187036 0.186916 0.18708 0.186578 0.187089 0.186399 0.187308 0.185977 
0.18732 0.185947 0.185729 0.18613 0.185321 0.186241 0.185059 0.184834 0.185085 
0.184367 0.185185 0.184182 0.183908 0.184267 0.184451 0.183468 0.183419 0.18348 
0.182877 0.18354 0.182761 0.18231 0.182746 0.182146 0.181796 0.182126 0.181668 
0.181398 0.181666 0.181341 0.180971 0.181381 0.180963 0.181114 0.180927 0.180882 
0.180941 0.180669 0.180618 0.180716 0.180546 0.180448 0.180612 0.180426 0.180473 
0.18039 0.180384 0.180403 0.18037 0.180355 0.180372 0.180354 0.180272 0.180281 
0.180221 0.180271 0.180176 0.189034 0.190373 0.188819 0.19051 0.188697 0.188623 
0.188772 0.188199 0.188753 0.18796 0.189014 0.187464 0.18902 0.187377 0.187158 
0.187556 0.186675 0.18773 0.186255 0.186091 0.186283 0.185608 0.186473 0.185311 
0.185108 0.185412 0.184528 0.185721 0.184449 0.183826 0.184594 0.183524 0.183105 
0.18361 0.18276 0.182469 0.182847 0.182174 0.181929 0.18227 0.181719 0.181514 
0.181856 0.181437 0.181153 0.181674 0.181131 0.181501 0.181089 0.181043 0.181128 
0.180829 0.180744 0.180932 0.180658 0.180474 0.180807 0.180473 0.180426 0.180395 
0.180497 0.18037 0.180488 0.180303 0.18028 0.180308 0.180174 0.180176 0.180186 
0.180173 0.190838 0.192515 0.190602 0.19056 0.19042 0.190727 0.189962 0.190689 
0.189684 0.191024 0.189093 0.189053 0.188766 0.189301 0.188234 0.189565 0.187765 
0.187539 0.187797 0.187002 0.188024 0.186694 0.186498 0.186825 0.185868 0.187207 
0.185738 0.185063 0.185907 0.184658 0.184238 0.184765 0.183765 0.183498 0.183863 
0.183035 0.182814 0.183134 0.182466 0.182249 0.18261 0.182042 0.18186 0.182276 
0.181784 0.181505 0.182115 0.181503 0.181379 0.181281 0.181447 0.18107 0.180907 
0.181181 0.180846 0.18067 0.180648 0.180708 0.180592 0.180514 0.180681 0.180503 
0.180364 0.180278 0.180359 0.180202 0.180189 0.180237 0.180244 0.192599 0.192547 
0.192331 0.192621 0.192102 0.192832 0.191628 0.192756 0.191416 0.191017 0.190778 
0.191043 0.190402 0.191353 0.189897 0.189595 0.189116 0.189718 0.188439 0.188195 
0.187892 0.188471 0.187263 0.187216 0.186385 0.18758 0.186001 0.185487 0.186227 
0.184988 0.184675 0.185167 0.184134 0.183889 0.184303 0.183438 0.183203 0.183661 
0.182895 0.182644 0.183228 0.182462 0.18222 0.18292 0.182173 0.181809 0.18177 
0.181881 0.181604 0.181384 0.181743 0.181235 0.180984 0.18097 0.181011 0.180837 
0.180759 0.181009 0.18072 0.180542 0.180495 0.180577 0.180364 0.180198 0.180535 
0.180189 0.180303 0.180542 0.194217 0.194822 0.193918 0.194897 0.193649 0.193057 
0.193037 0.193041 0.193268 0.192478 0.193435 0.191941 0.191653 0.191533 0.191769 
0.190791 0.192031 0.189958 0.189898 0.189973 0.189284 0.190336 0.188811 0.188608 
0.188926 0.187781 0.187642 0.186802 0.187914 0.186452 0.185903 0.18668 0.185491 
0.185071 0.185727 0.18469 0.184312 0.184993 0.184012 0.183629 0.184424 0.183447 
0.183008 0.182967 0.18255 0.182432 0.182621 0.182091 0.181903 0.182208 0.181808 
0.18144 0.181418 0.181471 0.181282 0.18116 0.18142 0.181106 0.180916 0.180857 
0.180927 0.180681 0.180563 0.180729 0.180552 0.180493 0.180598 0.180566 0.180689 
0.195543 0.195253 0.195028 0.19499 0.195046 0.194419 0.195051 0.194272 0.19523 
0.193953 0.19353 0.193304 0.193561 0.192825 0.193819 0.192256 0.192084 0.191403 
0.192263 0.190477 0.19038 0.189729 0.19058 0.189128 0.188881 0.189168 0.187956 
0.187928 0.186966 0.186797 0.186093 0.185902 0.185306 0.185154 0.184556 0.184489 
0.183854 0.183787 0.183895 0.183254 0.183036 0.183353 0.182741 0.182308 0.182228 
0.181948 0.181864 0.182008 0.181667 0.181509 0.181472 0.181195 0.181105 0.181213 
0.180948 0.18073 0.180729 0.180706 0.180641 0.180873 0.180614 0.180769 0.180849 
0.196574 0.196894 0.196333 0.197021 0.196032 0.195802 0.195306 0.19528 0.195117 
0.195556 0.194595 0.193949 0.193861 0.193393 0.194059 0.192692 0.192361 0.191745 
0.192482 0.190652 0.190586 0.189701 0.189176 0.1887 0.189096 0.18795 0.187731 
0.187914 0.186961 0.186855 0.186954 0.18616 0.186069 0.186169 0.185443 0.185298 
0.185471 0.184739 0.184468 0.184782 0.184053 0.183584 0.183403 0.182846 0.182797 
0.182866 0.182394 0.182232 0.18249 0.182119 0.181816 0.181801 0.181811 0.181512 
0.181345 0.181461 0.181232 0.181049 0.181022 0.181082 0.180939 0.180917 0.180915 
0.180771 0.180872 0.18083 0.180961 0.197548 0.19734 0.196983 0.196901 0.196966 
0.196751 0.197152 0.196409 0.19595 0.195714 0.195617 0.195804 0.194992 0.194303 
0.194115 0.19362 0.19423 0.192778 0.192509 0.191667 0.190631 0.190416 0.19064 
0.189249 0.189062 0.188216 0.187875 0.187308 0.186959 0.186516 0.186209 0.185755 
0.185501 0.184906 0.184789 0.184122 0.184038 0.184165 0.1835 0.18323 0.183614 
0.182966 0.18253 0.182504 0.182129 0.181971 0.182048 0.181752 0.181469 0.181458 
0.181284 0.181213 0.181162 0.181042 0.181031 0.181037 0.180982 0.180873 0.180853 
0.181208 0.181475 0.198292 0.198702 0.198024 0.197678 0.197392 0.197307 0.19726 
0.197407 0.196849 0.196396 0.195946 0.195881 0.195972 0.195201 0.194374 0.194243 
0.1935 0.192557 0.192505 0.192544 0.191241 0.190669 0.189934 0.189065 0.188727 
0.189087 0.187869 0.187719 0.187909 0.186995 0.186895 0.187056 0.186274 0.186145 
0.186394 0.185594 0.185362 0.185811 0.184917 0.184501 0.184265 0.183627 0.183617 
0.18296 0.182731 0.182838 0.182425 0.182072 0.18203 0.181734 0.181645 0.181775 
0.181535 0.181366 0.181365 0.181365 0.181184 0.181095 0.181039 0.18104 0.181041 
0.181104 0.181054 0.181481 0.181529 0.198794 0.198689 0.198567 0.198736 0.198345 
0.198738 0.198109 0.197847 0.197652 0.197643 0.19766 0.19713 0.196605 0.196117 
0.195968 0.196143 0.195156 0.194286 0.194139 0.194305 0.192985 0.19237 0.191806 
0.19064 0.190558 0.190596 0.189311 0.189143 0.188267 0.188045 0.187416 0.187214 
0.18665 0.186502 0.185843 0.185823 0.185035 0.184868 0.184948 0.184234 0.183799 
0.183467 0.182848 0.182832 0.182398 0.18224 0.182068 0.181784 0.181778 0.18151 
0.181383 0.181276 0.181133 0.181126 0.181163 0.181096 0.181147 0.181162 0.181212 
0.181442 0.181741 0.199315 0.19911 0.198774 0.198766 0.198684 0.198928 0.198401 
0.198088 0.197833 0.197815 0.197848 0.197215 0.196551 0.196201 0.195796 0.196222 
0.194792 0.194266 0.193525 0.192083 0.192076 0.192084 0.190824 0.190392 0.189618 
0.189058 0.188595 0.188054 0.187723 0.187248 0.186905 0.186482 0.186019 0.185702 
0.185001 0.184894 0.184103 0.183966 0.184157 0.183464 0.183112 0.182931 0.182445 
0.182408 0.182406 0.182022 0.181802 0.181664 0.181413 0.181388 0.181442 0.181278 
0.181221 0.181205 0.181126 0.181131 0.181132 0.181268 0.181293 0.181284 0.181945 
0.199663 0.199428 0.199292 0.199029 0.199007 0.198952 0.198982 0.198625 0.198253 
0.197989 0.197862 0.197948 0.19716 0.196265 0.196219 0.195284 0.19427 0.194118 
0.194139 0.192699 0.192144 0.191244 0.190331 0.189908 0.188993 0.188814 0.189039 
0.188034 0.187921 0.188076 0.187221 0.187084 0.187292 0.186458 0.186224 0.185692 
0.185266 0.184918 0.18425 0.184186 0.183474 0.183255 0.182837 0.182428 0.182315 
0.18195 0.181861 0.181665 0.181494 0.181468 0.181265 0.181198 0.181115 0.181042 
0.181051 0.181065 0.181143 0.181332 0.181411 0.182065 0.199839 0.200224 0.19963 
0.199391 0.199244 0.198994 0.198979 0.198919 0.199348 0.198547 0.198042 0.197897 
0.197541 0.196706 0.196102 0.195507 0.194206 0.193881 0.192928 0.191974 0.191595 
0.190335 0.190296 0.190319 0.189169 0.189082 0.188214 0.188115 0.187344 0.187305 
0.186527 0.186452 0.186471 0.185695 0.185423 0.184827 0.184293 0.184024 0.183267 
0.18323 0.18328 0.182778 0.182551 0.182363 0.181987 0.181969 0.181977 0.181625 
0.181455 0.18135 0.18116 0.181147 0.181098 0.181099 0.1811 0.181154 0.181283 
0.181433 0.182126 0.182168 0.20044 0.200362 0.200252 0.200284 0.199903 0.199743 
0.199612 0.199357 0.199354 0.199105 0.198677 0.198144 0.198015 0.197981 0.197158 
0.196191 0.196081 0.196001 0.194718 0.193887 0.193248 0.191817 0.191788 0.191808 
0.190463 0.190218 0.189312 0.189002 0.188341 0.188053 0.187436 0.187212 0.186492 
0.186395 0.185549 0.185449 0.185722 0.184745 0.184411 0.184006 0.183429 0.183346 
0.18282 0.182653 0.182313 0.182003 0.181938 0.181619 0.181524 0.181378 0.181193 
0.181191 0.181191 0.181056 0.181013 0.180984 0.181105 0.181199 0.181487 0.182146 
0.182243 0.200404 0.200271 0.200163 0.200029 0.199816 0.199636 0.199389 0.199149 
0.198968 0.198509 0.197911 0.197696 0.196955 0.195821 0.195565 0.194651 0.193571 
0.193366 0.192022 0.191762 0.190763 0.190263 0.189585 0.189183 0.188779 0.188356 
0.187918 0.187517 0.186923 0.186643 0.185803 0.185765 0.184869 0.184642 0.184049 
0.183528 0.183313 0.182829 0.182751 0.182342 0.18213 0.182003 0.181673 0.181608 
0.181397 0.181206 0.181166 0.181038 0.181014 0.180981 0.181217 0.181263 0.181761 
0.182447 0.182749 
velocity_u 1 1559 float
0.334788 0.45212 0.477497 0.293819 0.249449 0.424525 0.347271 0.476454 0.374646 
0.476476 0.448145 0.406564 0.360425 0.211357 0.192301 0.314653 0.277335 0.359161 
0.301144 0.278799 0.357387 0.35685 0.350025 0.348069 0.317741 0.33618 0.280526 
0.241356 0.32862 0.313395 0.268485 0.221816 0.116772 0.155952 0.150522 0.241476 
0.226402 0.273311 0.242707 0.268695 0.224029 0.199251 0.263933 0.258809 0.250988 
0.245939 0.221228 0.234297 0.191948 0.23184 0.224408 0.20815 0.212845 0.174538 
0.209928 0.179881 0.138523 0.112255 0.0876118 0.150292 0.153526 0.157392 0.186789 
0.184452 0.204161 0.193436 0.200182 0.180466 0.191622 0.161852 0.142803 0.187544 
0.181318 0.1751 0.172576 0.155709 0.135305 0.165223 0.16462 0.16373 0.15471 
0.140267 0.117551 0.146471 0.14392 0.141295 0.130409 0.115624 0.125395 0.105036 
0.0776968 0.073782 0.0622991 0.14044 0.122523 0.151837 0.126919 0.118311 0.151729 
0.150612 0.145577 0.143553 0.131568 0.137569 0.119431 0.107383 0.13569 0.13233 
0.128331 0.125952 0.114645 0.101176 0.121607 0.118996 0.11669 0.111442 0.102668 
0.0878549 0.108107 0.102655 0.0991174 0.0832213 0.0943302 0.0922096 0.0917249 0.0771165 
0.0747879 0.0763516 0.0615654 0.0268158 0.0819015 0.0442549 0.0416696 0.106139 0.0997134 
0.114468 0.102358 0.113284 0.0942419 0.0843016 0.110615 0.10864 0.106191 0.106015 
0.0972456 0.103347 0.0865513 0.0755559 0.102182 0.0995625 0.0951345 0.096711 0.0846956 
0.0737332 0.0953071 0.09269 0.0890238 0.0873729 0.077475 0.0870865 0.0801078 0.0760798 
0.0770232 0.0712773 0.0701089 0.0587395 0.066116 0.0602297 0.0612329 0.0511236 0.0540829 
0.0505985 0.0223973 0.0103308 0.080365 0.0604886 0.0565865 0.045941 0.0820149 0.084658 
0.081249 0.0808789 0.0709121 0.0776691 0.0614061 0.0512287 0.0404658 0.0757178 0.0756122 
0.0750911 0.0731686 0.0634156 0.0719699 0.0531944 0.0432946 0.0720635 0.0719258 0.0653713 
0.071509 0.0542825 0.0714256 0.070032 0.0619547 0.0508286 0.0691316 0.0680989 0.0656768 
0.0545463 0.0646641 0.0644995 0.0643698 0.0582896 0.0537087 0.0578244 0.0508297 0.0492294 
0.0503329 0.0423603 0.0407645 0.0404953 0.0320168 -0.000784825 0.011201 0.00302873 -0.000454083 
-0.000147333 0.0485267 0.0387926 0.0483226 0.0305223 0.0445672 0.0208667 0.011382 0.00151138 
0.0444077 0.043249 0.0366815 0.0408412 0.0255274 0.0392825 0.0159462 0.00759358 0.0393526 
0.0397594 0.0310622 0.040454 0.0211385 0.0116476 0.040666 0.0419095 0.0324813 0.0228993 
0.0438748 0.0439933 0.0430947 0.0465462 0.0331719 0.047258 0.0482984 0.0403364 0.029904 
0.0486337 0.0482332 0.0436586 0.0330417 0.047393 0.0458569 0.0432305 0.0328454 0.0437439 
0.0408822 0.039525 0.0381311 0.0322304 0.0330005 0.0298005 0.0234649 0.0166337 -0.000302002 
0.0055597 0.00110999 -0.0211503 0.000750291 -0.0265775 -0.0331201 -0.0402756 0.000866069 0.00110224 
-0.00459243 0.000196525 -0.0140219 0.000205939 -0.0214282 -0.0277556 0.000438474 0.00245242 -0.00603659 
0.00550954 -0.0137061 -0.0206201 0.00602186 0.00774031 -0.000997968 0.0107005 -0.00807939 0.0109971 
0.0147044 0.00426109 -0.00327222 0.0171646 0.0191774 0.0141923 0.00575538 0.0240607 0.0243988 
0.0235172 0.0286901 0.0139803 0.0290092 0.0316465 0.0195944 0.0319048 0.0325415 0.0223838 
0.0325464 0.0220666 0.0307154 0.0300859 0.0294238 0.0185507 0.0265063 0.0235624 0.0231214 
0.0199156 0.0144738 0.0181941 -0.000467437 -0.0805138 -0.0818789 -0.0265135 -0.0527143 -0.0548152 
-0.0475002 -0.0557191 -0.0445331 -0.0594243 -0.0419804 -0.0620075 -0.0642602 -0.0412423 -0.0377676 
-0.0438158 -0.0336977 -0.0478762 -0.0513338 -0.0315803 -0.0298029 -0.0337843 -0.0247372 -0.0375753 
-0.0416667 -0.0228671 -0.0188308 -0.0256166 -0.0306037 -0.0135586 -0.0124631 -0.014429 -0.00676653 
-0.0202488 -0.00534331 -0.00125269 -0.0102401 -0.0173961 0.00142976 0.0047776 -0.00227816 -0.0104723 
0.00819484 0.0105538 0.00461303 -0.00500568 0.0135109 0.0153699 0.00929549 0.0170866 0.0182013 
0.011331 0.0185701 0.0178575 0.0103899 0.0177155 0.00649492 0.0147021 0.0133925 0.0123575 
0.00993059 0.00443625 -0.0132042 -0.020012 -0.0906658 -0.100542 -0.0857161 -0.100239 -0.0984395 
-0.0828751 -0.0805094 -0.0825648 -0.074356 -0.0809687 -0.0684569 -0.0805289 -0.0805201 -0.0657946 
-0.0631183 -0.0661294 -0.0571519 -0.0665126 -0.0679056 -0.0533608 -0.0509306 -0.0537321 -0.0447518 
-0.0562429 -0.059758 -0.0430969 -0.0385217 -0.0455361 -0.0496737 -0.0341944 -0.0315423 -0.0355968 
-0.0405074 -0.0254098 -0.0241804 -0.0262954 -0.0175297 -0.0322777 -0.0174718 -0.0113939 -0.0246393 
-0.0110656 -0.00530112 -0.019334 -0.00520352 -0.0154769 -0.000404189 0.000128488 -0.0015556 -0.0137293 
0.00292475 0.0037361 -0.000684433 0.00453409 0.00444187 -0.00256899 0.00423526 -0.0070365 0.00220117 
0.00159064 0.000257743 -0.000970519 -0.00734127 -0.0441226 -0.0354637 -0.0359873 -0.112323 -0.11449 
-0.108538 -0.113585 -0.102353 -0.110182 -0.107275 -0.0968283 -0.095558 -0.0961619 -0.0894826 
-0.0940478 -0.0834641 -0.0924777 -0.09202 -0.0806643 -0.0772166 -0.0800605 -0.0713526 -0.0806934 
-0.0829244 -0.0690382 -0.0656415 -0.0699774 -0.0597725 -0.0728012 -0.0597641 -0.0532709 -0.0633055 
-0.0512869 -0.0463375 -0.0545288 -0.0433203 -0.0390084 -0.0466899 -0.0357037 -0.0319037 -0.0398778 
-0.028934 -0.0257433 -0.0338182 -0.0236791 -0.0201378 -0.0302564 -0.0187718 -0.0149609 -0.028193 
-0.0146802 -0.0281967 -0.0117404 -0.0111943 -0.0143457 -0.0101059 -0.00985258 -0.0173724 -0.00991483 
-0.0224918 -0.0110537 -0.011478 -0.0134337 -0.0130412 -0.0208391 -0.0454321 -0.0494616 -0.127962 
-0.112259 -0.122524 -0.122661 -0.120999 -0.122702 -0.115421 -0.119211 -0.109568 -0.116438 
-0.114813 -0.10616 -0.104077 -0.105275 -0.0983134 -0.103527 -0.0927688 -0.103484 -0.0921724 
-0.0877915 -0.0929801 -0.0830094 -0.095647 -0.0829591 -0.077797 -0.0862233 -0.0751185 -0.0724238 
-0.0773156 -0.0844066 -0.0678732 -0.0667169 -0.0689888 -0.0775058 -0.0609733 -0.0605383 -0.0614447 