# vtk DataFile Version 5.1
vtk output
ASCII
DATASET STRUCTURED_GRID
DIMENSIONS 12 13 25
POINTS 3900 float
1.44059 1 0.5 1.44059 1.003 0.5 1.44059 1.00865 0.5 
1.44059 1.01913 0.5 1.44059 1.03811 0.5 1.44059 1.07096 0.5 
1.44059 1.12363 0.5 1.44059 1.19852 0.5 1.44059 1.28865 0.5 
1.44059 1.37767 0.5 1.44059 1.45 0.5 1.44059 1.5 0.5 
1.44059 1 0.503 1.44059 1.003 0.503 1.44059 1.00865 0.503 
1.44059 1.01913 0.503 1.44059 1.03811 0.503 1.44059 1.07096 0.503 
1.44059 1.12363 0.503 1.44059 1.19852 0.503 1.44059 1.28865 0.503 
1.44059 1.37767 0.503 1.44059 1.45 0.503 1.44059 1.5 0.503 
1.44059 1 0.506095 1.44059 1.003 0.506095 1.44059 1.00865 0.506095 
1.44059 1.01913 0.506095 1.44059 1.03811 0.506095 1.44059 1.07096 0.506095 
1.44059 1.12363 0.506095 1.44059 1.19852 0.506095 1.44059 1.28865 0.506095 
1.44059 1.37767 0.506095 1.44059 1.45 0.506095 1.44059 1.5 0.506095 
1.44059 1 0.509384 1.44059 1.003 0.509384 1.44059 1.00865 0.509384 
1.44059 1.01913 0.509384 1.44059 1.03811 0.509384 1.44059 1.07096 0.509384 
1.44059 1.12363 0.509384 1.44059 1.19852 0.509384 1.44059 1.28865 0.509384 
1.44059 1.37767 0.509384 1.44059 1.45 0.509384 1.44059 1.5 0.509384 
1.44059 1 0.512971 1.44059 1.003 0.512971 1.44059 1.00865 0.512971 
1.44059 1.01913 0.512971 1.44059 1.03811 0.512971 1.44059 1.07096 0.512971 
1.44059 1.12363 0.512971 1.44059 1.19852 0.512971 1.44059 1.28865 0.512971 
1.44059 1.37767 0.512971 1.44059 1.45 0.512971 1.44059 1.5 0.512971 
1.44059 1 0.516969 1.44059 1.003 0.516969 1.44059 1.00865 0.516969 
1.44059 1.01913 0.516969 1.44059 1.03811 0.516969 1.44059 1.07096 0.516969 
1.44059 1.12363 0.516969 1.44059 1.19852 0.516969 1.44059 1.28865 0.516969 
1.44059 1.37767 0.516969 1.44059 1.45 0.516969 1.44059 1.5 0.516969 
1.44059 1 0.521506 1.44059 1.003 0.521506 1.44059 1.00865 0.521506 
1.44059 1.01913 0.521506 1.44059 1.03811 0.521506 1.44059 1.07096 0.521506 
1.44059 1.12363 0.521506 1.44059 1.19852 0.521506 1.44059 1.28865 0.521506 
1.44059 1.37767 0.521506 1.44059 1.45 0.521506 1.44059 1.5 0.521506 
1.44059 1 0.526726 1.44059 1.003 0.526726 1.44059 1.00865 0.526726 
1.44059 1.01913 0.526726 1.44059 1.03811 0.526726 1.44059 1.07096 0.526726 
1.44059 1.12363 0.526726 1.44059 1.19852 0.526726 1.44059 1.28865 0.526726 
1.44059 1.37767 0.526726 1.44059 1.45 0.526726 1.44059 1.5 0.526726 
1.44059 1 0.532795 1.44059 1.003 0.532795 1.44059 1.00865 0.532795 
1.44059 1.01913 0.532795 1.44059 1.03811 0.532795 1.44059 1.07096 0.532795 
1.44059 1.12363 0.532795 1.44059 1.19852 0.532795 1.44059 1.28865 0.532795 
1.44059 1.37767 0.532795 1.44059 1.45 0.532795 1.44059 1.5 0.532795 
1.44059 1 0.539904 1.44059 1.003 0.539904 1.44059 1.00865 0.539904 
1.44059 1.01913 0.539904 1.44059 1.03811 0.539904 1.44059 1.07096 0.539904 
1.44059 1.12363 0.539904 1.44059 1.19852 0.539904 1.44059 1.28865 0.539904 
1.44059 1.37767 0.539904 1.44059 1.45 0.539904 1.44059 1.5 0.539904 
1.44059 1 0.548281 1.44059 1.003 0.548281 1.44059 1.00865 0.548281 
1.44059 1.01913 0.548281 1.44059 1.03811 0.548281 1.44059 1.07096 0.548281 
1.44059 1.12363 0.548281 1.44059 1.19852 0.548281 1.44059 1.28865 0.548281 
1.44059 1.37767 0.548281 1.44059 1.45 0.548281 1.44059 1.5 0.548281 
1.44059 1 0.55819 1.44059 1.003 0.55819 1.44059 1.00865 0.55819 
1.44059 1.01913 0.55819 1.44059 1.03811 0.55819 1.44059 1.07096 0.55819 
1.44059 1.12363 0.55819 1.44059 1.19852 0.55819 1.44059 1.28865 0.55819 
1.44059 1.37767 0.55819 1.44059 1.45 0.55819 1.44059 1.5 0.55819 
1.44059 1 0.569947 1.44059 1.003 0.569947 1.44059 1.00865 0.569947 
1.44059 1.01913 0.569947 1.44059 1.03811 0.569947 1.44059 1.07096 0.569947 
1.44059 1.12363 0.569947 1.44059 1.19852 0.569947 1.44059 1.28865 0.569947 
1.44059 1.37767 0.569947 1.44059 1.45 0.569947 1.44059 1.5 0.569947 
1.44342 1.00093 0.500375 1.44342 1.00392 0.500375 1.44342 1.00954 0.500375 
1.44342 1.01998 0.500375 1.44342 1.03889 0.500375 1.44342 1.07163 0.500375 
1.44342 1.12413 0.500375 1.44342 1.19884 0.500375 1.44342 1.28885 0.500375 
1.44342 1.37795 0.500375 1.44342 1.45055 0.500375 1.44342 1.50093 0.500375 
1.44342 1.00093 0.503375 1.44342 1.00392 0.503375 1.44342 1.00954 0.503375 
1.44342 1.01998 0.503375 1.44342 1.03889 0.503375 1.44342 1.07163 0.503375 
1.44342 1.12413 0.503375 1.44342 1.19884 0.503375 1.44342 1.28885 0.503375 
1.44342 1.37795 0.503375 1.44342 1.45055 0.503375 1.44342 1.50093 0.503375 
1.44342 1.00093 0.50647 1.44342 1.00392 0.50647 1.44342 1.00954 0.50647 
1.44342 1.01998 0.50647 1.44342 1.03889 0.50647 1.44342 1.07163 0.50647 
1.44342 1.12413 0.50647 1.44342 1.19884 0.50647 1.44342 1.28885 0.50647 
1.44342 1.37795 0.50647 1.44342 1.45055 0.50647 1.44342 1.50093 0.50647 
1.44342 1.00093 0.509759 1.44342 1.00392 0.509759 1.44342 1.00954 0.509759 
1.44342 1.01999 0.509759 1.44342 1.03889 0.509759 1.44342 1.07163 0.509759 
1.44342 1.12413 0.509759 1.44342 1.19884 0.509759 1.44342 1.28885 0.509759 
1.44342 1.37795 0.509759 1.44342 1.45055 0.509759 1.44342 1.50093 0.509759 
1.44342 1.00093 0.513345 1.44342 1.00392 0.513345 1.44342 1.00954 0.513345 
1.44342 1.01999 0.513345 1.44342 1.03889 0.513345 1.44342 1.07163 0.513345 
1.44342 1.12413 0.513345 1.44342 1.19884 0.513345 1.44342 1.28885 0.513345 
1.44342 1.37795 0.513345 1.44342 1.45055 0.513345 1.44342 1.50093 0.513345 
1.44342 1.00093 0.517343 1.44342 1.00392 0.517343 1.44342 1.00954 0.517343 
1.44342 1.01999 0.517343 1.44342 1.03889 0.517343 1.44342 1.07163 0.517343 
1.44342 1.12413 0.517343 1.44342 1.19884 0.517343 1.44342 1.28885 0.517343 
1.44342 1.37795 0.517343 1.44342 1.45055 0.517343 1.44342 1.50093 0.517343 
1.44342 1.00093 0.52188 1.44342 1.00392 0.52188 1.44342 1.00954 0.52188 
1.44342 1.01999 0.52188 1.44342 1.03889 0.52188 1.44342 1.07163 0.52188 
1.44342 1.12413 0.52188 1.44342 1.19884 0.52188 1.44342 1.28885 0.52188 
1.44342 1.37795 0.52188 1.44342 1.45055 0.52188 1.44342 1.50093 0.52188 
1.44342 1.00093 0.527099 1.44342 1.00392 0.527099 1.44342 1.00954 0.527099 
1.44342 1.01999 0.527099 1.44342 1.03889 0.527099 1.44342 1.07163 0.527099 
1.44342 1.12413 0.527099 1.44342 1.19884 0.527099 1.44342 1.28885 0.527099 
1.44342 1.37795 0.527099 1.44342 1.45055 0.527099 1.44342 1.50093 0.527099 
1.44342 1.00093 0.533166 1.44342 1.00392 0.533166 1.44342 1.00954 0.533166 
1.44342 1.01999 0.533166 1.44342 1.03889 0.533166 1.44342 1.07163 0.533166 
1.44342 1.12413 0.533166 1.44342 1.19884 0.533166 1.44342 1.28885 0.533166 
1.44342 1.37795 0.533166 1.44342 1.45055 0.533166 1.44342 1.50093 0.533166 
1.44342 1.00093 0.540274 1.44342 1.00392 0.540274 1.44342 1.00954 0.540274 
1.44342 1.01999 0.540274 1.44342 1.03889 0.540274 1.44342 1.07163 0.540274 
1.44342 1.12413 0.540274 1.44342 1.19884 0.540274 1.44342 1.28885 0.540274 
1.44342 1.37795 0.540274 1.44342 1.45055 0.540274 1.44342 1.50093 0.540274 
1.44342 1.00093 0.548648 1.44342 1.00392 0.548648 1.44342 1.00954 0.548648 
1.44342 1.01999 0.548648 1.44342 1.03889 0.548648 1.44342 1.07163 0.548648 
1.44342 1.12413 0.548648 1.44342 1.19884 0.548648 1.44342 1.28885 0.548648 
1.44342 1.37795 0.548648 1.44342 1.45055 0.548648 1.44342 1.50093 0.548648 
1.44342 1.00093 0.558553 1.44342 1.00392 0.558553 1.44342 1.00954 0.558553 
1.44342 1.01999 0.558553 1.44342 1.03889 0.558553 1.44342 1.07163 0.558553 
1.44342 1.12413 0.558553 1.44342 1.19884 0.558553 1.44342 1.28885 0.558553 
1.44342 1.37795 0.558553 1.44342 1.45055 0.558553 1.44342 1.50093 0.558553 
1.44342 1.00093 0.570305 1.44342 1.00392 0.570305 1.44342 1.00954 0.570305 
1.44342 1.01999 0.570305 1.44342 1.03889 0.570305 1.44342 1.07163 0.570305 
1.44342 1.12413 0.570305 1.44342 1.19884 0.570305 1.44342 1.28885 0.570305 
1.44342 1.37795 0.570305 1.44342 1.45055 0.570305 1.44342 1.50093 0.570305 
1.447 1.00211 0.50085 1.447 1.00508 0.50085 1.447 1.01068 0.50085 
1.447 1.02107 0.50085 1.447 1.03989 0.50085 1.447 1.07248 0.50085 
1.447 1.12477 0.50085 1.447 1.19923 0.50085 1.447 1.28911 0.50085 
1.447 1.3783 0.50085 1.447 1.45126 0.50085 1.447 1.50211 0.50085 
1.447 1.00211 0.503851 1.447 1.00508 0.503851 1.447 1.01068 0.503851 
1.447 1.02107 0.503851 1.447 1.03989 0.503851 1.447 1.07248 0.503851 
1.447 1.12477 0.503851 1.447 1.19923 0.503851 1.447 1.28911 0.503851 
1.447 1.3783 0.503851 1.447 1.45126 0.503851 1.447 1.50211 0.503851 
1.447 1.00211 0.506946 1.447 1.00508 0.506946 1.447 1.01068 0.506946 
1.447 1.02107 0.506946 1.447 1.03989 0.506946 1.447 1.07248 0.506946 
1.447 1.12477 0.506946 1.447 1.19923 0.506946 1.447 1.28911 0.506946 
1.447 1.3783 0.506946 1.447 1.45126 0.506946 1.447 1.50211 0.506946 
1.447 1.00211 0.510234 1.447 1.00508 0.510234 1.447 1.01068 0.510234 
1.447 1.02107 0.510234 1.447 1.03989 0.510234 1.447 1.07248 0.510234 
1.447 1.12477 0.510234 1.447 1.19923 0.510234 1.447 1.28911 0.510234 
1.447 1.3783 0.510234 1.447 1.45126 0.510234 1.447 1.50211 0.510234 
1.447 1.00211 0.51382 1.447 1.00508 0.51382 1.447 1.01068 0.51382 
1.447 1.02107 0.51382 1.447 1.03989 0.51382 1.447 1.07248 0.51382 
1.447 1.12477 0.51382 1.447 1.19923 0.51382 1.447 1.28911 0.51382 
1.447 1.3783 0.51382 1.447 1.45126 0.51382 1.447 1.50211 0.51382 
1.447 1.00211 0.517818 1.447 1.00508 0.517818 1.447 1.01068 0.517818 
1.447 1.02107 0.517818 1.447 1.03989 0.517818 1.447 1.07248 0.517818 
1.447 1.12477 0.517818 1.447 1.19923 0.517818 1.447 1.28911 0.517818 
1.447 1.3783 0.517818 1.447 1.45126 0.517818 1.447 1.50211 0.517818 
1.447 1.00211 0.522354 1.447 1.00508 0.522354 1.447 1.01068 0.522354 
1.447 1.02107 0.522354 1.447 1.03989 0.522354 1.447 1.07248 0.522354 
1.447 1.12477 0.522354 1.447 1.19923 0.522354 1.447 1.28911 0.522354 
1.447 1.3783 0.522354 1.447 1.45126 0.522354 1.447 1.50211 0.522354 
1.447 1.00211 0.527571 1.447 1.00508 0.527571 1.447 1.01068 0.527571 
1.447 1.02107 0.527571 1.447 1.03989 0.527571 1.447 1.07248 0.527571 
1.447 1.12477 0.527571 1.447 1.19923 0.527571 1.447 1.28911 0.527571 
1.447 1.3783 0.527571 1.447 1.45126 0.527571 1.447 1.50211 0.527571 
1.447 1.00211 0.533637 1.447 1.00508 0.533637 1.447 1.01068 0.533637 
[...]
POINT_DATA 3900
FIELD FieldData 5
pressure 1 3900 float
0.300532 0.291514 0.283693 0.263286 0.191004 0.178993 0.178575 0.178572 0.178573 
0.178573 0.178573 0.178573 0.298435 0.290576 0.282499 0.26027 0.190091 0.178966 
0.178574 0.178572 0.178573 0.178573 0.178573 0.178573 0.296005 0.289589 0.281846 
0.257688 0.189502 0.178942 0.178575 0.178572 0.178573 0.178573 0.178573 0.178573 
0.293101 0.287997 0.281706 0.255041 0.18882 0.178925 0.178574 0.178572 0.178573 
0.178573 0.178573 0.178573 0.290106 0.28614 0.281085 0.252124 0.188166 0.1789 
0.178574 0.178572 0.178573 0.178573 0.178573 0.178573 0.287384 0.28379 0.280216 
0.248767 0.18741 0.178879 0.178574 0.178572 0.178573 0.178573 0.178573 0.178573 
0.284849 0.280871 0.278845 0.245027 0.18665 0.178848 0.178574 0.178572 0.178573 
0.178573 0.178573 0.178573 0.282221 0.277773 0.276802 0.240771 0.185787 0.178823 
0.178573 0.178572 0.178573 0.178573 0.178573 0.178573 0.279985 0.274514 0.273668 
0.235919 0.184919 0.178788 0.178573 0.178572 0.178573 0.178573 0.178573 0.178573 
0.278008 0.270839 0.26858 0.230512 0.183953 0.178755 0.178572 0.178573 0.178573 
0.178573 0.178573 0.178573 0.2753 0.266362 0.26159 0.224395 0.182949 0.178714 
0.178571 0.178573 0.178573 0.178573 0.178573 0.178573 0.270628 0.261133 0.253561 
0.217478 0.181861 0.178673 0.178571 0.178573 0.178573 0.178573 0.178573 0.178573 
0.264282 0.256121 0.245187 0.20961 0.180801 0.178632 0.17857 0.178573 0.178573 
0.178573 0.178573 0.178573 0.35871 0.35871 0.294663 0.26468 0.19239 0.179126 
0.178577 0.178571 0.178573 0.178573 0.178573 0.178573 0.342525 0.305566 0.28768 
0.261817 0.191289 0.179085 0.178576 0.178571 0.178574 0.178573 0.178573 0.178573 
0.303023 0.292206 0.283543 0.259826 0.190783 0.179053 0.178576 0.178571 0.178573 
0.178573 0.178573 0.178573 0.295373 0.288681 0.280957 0.256907 0.190217 0.179035 
0.178575 0.178571 0.178573 0.178573 0.178573 0.178573 0.292034 0.286978 0.27962 
0.253863 0.189588 0.178998 0.178575 0.178571 0.178573 0.178573 0.178573 0.178573 
0.289237 0.285095 0.278483 0.250514 0.188835 0.178965 0.178574 0.178572 0.178573 
0.178573 0.178573 0.178573 0.286555 0.2824 0.277219 0.246836 0.188013 0.178918 
0.178574 0.178572 0.178573 0.178573 0.178573 0.178573 0.284122 0.279203 0.275344 
0.242627 0.187075 0.178884 0.178573 0.178572 0.178573 0.178573 0.178573 0.178573 
0.281998 0.275981 0.272379 0.237706 0.186081 0.178836 0.178573 0.178572 0.178573 
0.178573 0.178573 0.178573 0.280191 0.272364 0.267535 0.232234 0.184996 0.178797 
0.178572 0.178572 0.178573 0.178573 0.178573 0.178573 0.277517 0.267825 0.260775 
0.226134 0.183864 0.178746 0.178572 0.178573 0.178573 0.178573 0.178573 0.178573 
0.272987 0.262736 0.252802 0.219259 0.182631 0.1787 0.178571 0.178573 0.178573 
0.178573 0.178573 0.178573 0.266441 0.257757 0.24451 0.211386 0.181388 0.178651 
0.17857 0.178573 0.178573 0.178573 0.178573 0.178573 0.400771 0.400771 0.341035 
0.273888 0.194839 0.179315 0.178582 0.17857 0.178574 0.178573 0.178573 0.178573 
0.372645 0.340819 0.309442 0.269265 0.194044 0.179266 0.178581 0.178571 0.178574 
0.178573 0.178573 0.178573 0.334605 0.308436 0.291893 0.267368 0.194032 0.179229 
0.178581 0.178571 0.178573 0.178573 0.178573 0.178573 0.304547 0.293005 0.284205 
0.265152 0.193381 0.179202 0.178581 0.178571 0.178573 0.178573 0.178573 0.178573 
0.295044 0.288612 0.281568 0.262253 0.192481 0.179161 0.17858 0.178571 0.178573 
0.178573 0.178573 0.178573 0.290733 0.286012 0.280761 0.258803 0.191444 0.17912 
0.178579 0.178571 0.178573 0.178573 0.178573 0.178573 0.28717 0.283565 0.280143 
0.254899 0.190395 0.179061 0.178578 0.178571 0.178573 0.178573 0.178573 0.178573 
0.284165 0.280541 0.278889 0.250322 0.18926 0.179008 0.178576 0.178571 0.178573 
0.178573 0.178573 0.178573 0.28172 0.277316 0.276447 0.245099 0.188055 0.178943 
0.178576 0.178571 0.178573 0.178573 0.178573 0.178573 0.279856 0.273969 0.272172 
0.239173 0.186744 0.178887 0.178574 0.178572 0.178573 0.178573 0.178573 0.178573 
0.27768 0.269845 0.265702 0.232538 0.185366 0.178822 0.178573 0.178572 0.178573 
0.178573 0.178573 0.178573 0.273805 0.264588 0.25725 0.225133 0.183873 0.178758 
0.178572 0.178572 0.178573 0.178573 0.178573 0.178573 0.267598 0.258985 0.248079 
0.216648 0.182319 0.178691 0.178571 0.178573 0.178573 0.178573 0.178573 0.178573 
0.39291 0.39291 0.389657 0.301671 0.199572 0.179639 0.17859 0.17857 0.178574 
0.178573 0.178573 0.178573 0.383386 0.370704 0.356982 0.289212 0.198492 0.179573 
0.178588 0.17857 0.178574 0.178573 0.178573 0.178573 0.372304 0.349447 0.327336 
0.280848 0.198435 0.179519 0.178587 0.17857 0.178574 0.178573 0.178573 0.178573 
0.336856 0.313943 0.299816 0.275797 0.198399 0.179489 0.178586 0.17857 0.178574 
0.178573 0.178573 0.178573 0.307054 0.295496 0.287857 0.272576 0.19772 0.179429 
0.178585 0.17857 0.178574 0.178573 0.178573 0.178573 0.294991 0.288597 0.2839 
0.269442 0.196361 0.17936 0.178584 0.17857 0.178574 0.178573 0.178573 0.178573 
0.289667 0.285404 0.282427 0.265523 0.194769 0.179285 0.178583 0.17857 0.178574 
0.178573 0.178573 0.178573 0.28572 0.282392 0.281908 0.260869 0.193048 0.179212 
0.178581 0.17857 0.178574 0.178573 0.178573 0.178573 0.282437 0.279374 0.280715 
0.255329 0.191371 0.179129 0.17858 0.178571 0.178574 0.178573 0.178573 0.178573 
0.279765 0.276039 0.277691 0.248907 0.189651 0.179046 0.178579 0.178571 0.178574 
0.178573 0.178573 0.178573 0.277341 0.272319 0.272045 0.241672 0.187848 0.178953 
0.178578 0.178571 0.178573 0.178573 0.178573 0.178573 0.274004 0.267189 0.263671 
0.233469 0.185907 0.178862 0.178576 0.178572 0.178573 0.178573 0.178573 0.178573 
0.268633 0.260662 0.253278 0.224173 0.183869 0.178766 0.178573 0.178572 0.178573 
0.178573 0.178573 0.178573 0.393814 0.393814 0.396653 0.346158 0.211106 0.180177 
0.178607 0.17857 0.178574 0.178573 0.178573 0.178573 0.391792 0.386847 0.385968 
0.32999 0.208266 0.18007 0.178605 0.17857 0.178574 0.178573 0.178573 0.178573 
0.388505 0.379236 0.370751 0.31344 0.206565 0.179983 0.178603 0.17857 0.178574 
0.178573 0.178573 0.178573 0.378069 0.35586 0.344271 0.297243 0.205595 0.179949 
0.178602 0.17857 0.178574 0.178573 0.178573 0.178573 0.351864 0.328232 0.313009 
0.286924 0.205075 0.179892 0.1786 0.17857 0.178574 0.178573 0.178573 0.178573 
0.31653 0.301954 0.293867 0.280816 0.204163 0.179816 0.178598 0.17857 0.178573 
0.178573 0.178573 0.178573 0.29829 0.290778 0.286832 0.276519 0.202357 0.179701 
0.178596 0.17857 0.178574 0.178573 0.178573 0.178573 0.290496 0.286083 0.284404 
0.272303 0.199992 0.179577 0.178593 0.178569 0.178574 0.178573 0.178573 0.178573 
0.285274 0.282732 0.283143 0.267005 0.197291 0.17945 0.178589 0.17857 0.178574 
0.178573 0.178573 0.178573 0.281145 0.279446 0.281905 0.260647 0.194563 0.179324 
0.178585 0.17857 0.178574 0.178573 0.178573 0.178573 0.277514 0.275583 0.278135 
0.25313 0.191944 0.179188 0.178581 0.17857 0.178574 0.178573 0.178573 0.178573 
0.27387 0.270767 0.270932 0.244249 0.189245 0.179044 0.178579 0.17857 0.178574 
0.178573 0.178573 0.178573 0.269341 0.263839 0.260004 0.234008 0.186469 0.178899 
0.178577 0.178571 0.178573 0.178573 0.178573 0.178573 0.406803 0.406803 0.404565 
0.383437 0.2413 0.181446 0.178642 0.17857 0.178573 0.178573 0.178573 0.178573 
0.407031 0.40817 0.402766 0.372749 0.233968 0.181164 0.178636 0.178569 0.178573 
0.178573 0.178573 0.178573 0.405425 0.404853 0.39761 0.358667 0.227437 0.180929 
0.178631 0.178569 0.178573 0.178573 0.178573 0.178573 0.402157 0.396873 0.385931 
0.341252 0.221593 0.180793 0.178627 0.17857 0.178573 0.178573 0.178573 0.178573 
0.392543 0.383764 0.369422 0.322203 0.217484 0.180662 0.178624 0.178569 0.178573 
0.178573 0.178573 0.178573 0.372183 0.353757 0.335555 0.303026 0.214967 0.180557 
0.178619 0.178569 0.178573 0.178573 0.178573 0.178573 0.336769 0.318408 0.305824 
0.290648 0.213239 0.180429 0.178614 0.178569 0.178573 0.178573 0.178573 0.178573 
0.307652 0.298249 0.291629 0.283309 0.210942 0.180257 0.178609 0.178569 0.178573 
0.178573 0.178573 0.178573 0.293694 0.289722 0.286739 0.277535 0.207754 0.180042 
0.178605 0.178569 0.178574 0.178573 0.178573 0.178573 0.28573 0.28498 0.284155 
0.271944 0.203852 0.179825 0.178602 0.178569 0.178574 0.178573 0.178573 0.178573 
0.279569 0.280364 0.281481 0.265108 0.199454 0.179607 0.178599 0.17857 0.178574 
0.178573 0.178573 0.178573 0.274749 0.275281 0.276712 0.256582 0.195136 0.17939 
0.178592 0.17857 0.178574 0.178573 0.178573 0.178573 0.27039 0.268866 0.267102 
0.24612 0.190944 0.179164 0.178583 0.17857 0.178574 0.178573 0.178573 0.178573 
0.412161 0.412161 0.40778 0.39085 0.288727 0.185502 0.178746 0.178573 0.178573 
0.178573 0.178573 0.178573 0.408106 0.41224 0.406326 0.386731 0.277348 0.184591 
0.178732 0.178573 0.178573 0.178573 0.178573 0.178573 0.40631 0.411035 0.40431 
0.383585 0.267774 0.18385 0.178718 0.178572 0.178573 0.178573 0.178573 0.178573 
0.404754 0.410897 0.404018 0.377683 0.256703 0.183216 0.17871 0.178572 0.178573 
0.178573 0.178573 0.178573 0.403802 0.409513 0.402794 0.370239 0.246031 0.182667 
0.178699 0.178572 0.178573 0.178573 0.178573 0.178573 0.40186 0.404914 0.394949 
0.354592 0.236826 0.182255 0.178692 0.178571 0.178573 0.178573 0.178573 0.178573 
0.391401 0.389335 0.373048 0.331795 0.230301 0.181943 0.178682 0.178572 0.178573 
0.178573 0.178573 0.178573 0.365112 0.353246 0.334239 0.306561 0.225841 0.181667 
0.178671 0.17857 0.178573 0.178573 0.178573 0.178573 0.326819 0.314563 0.303011 
0.291084 0.222353 0.181355 0.178652 0.17857 0.178573 0.178573 0.178573 0.178573 
0.301048 0.295817 0.290099 0.281999 0.21806 0.180954 0.178634 0.178569 0.178573 
0.178573 0.178573 0.178573 0.287946 0.287063 0.284611 0.275023 0.21251 0.180488 
0.178617 0.178569 0.178573 0.178573 0.178573 0.178573 0.279146 0.280851 0.279754 
0.267938 0.206013 0.180043 0.178608 0.178568 0.178573 0.178573 0.178573 0.178573 
0.272987 0.274565 0.273093 0.258646 0.199299 0.179646 0.178601 0.178569 0.178574 
0.178573 0.178573 0.178573 0.413877 0.413877 0.409752 0.408231 0.354722 0.198359 
0.179074 0.178577 0.17857 0.178574 0.178573 0.178573 0.404718 0.410053 0.406316 
0.404632 0.345505 0.195591 0.179011 0.178577 0.178571 0.178574 0.178573 0.178573 
0.403499 0.407794 0.40489 0.401787 0.336498 0.193567 0.178958 0.178576 0.178571 
0.178574 0.178573 0.178573 0.404435 0.408257 0.404855 0.398816 0.324627 0.191612 
0.178912 0.178576 0.178571 0.178574 0.178573 0.178573 0.405334 0.408362 0.403754 
0.394752 0.310946 0.189775 0.178871 0.178574 0.178571 0.178574 0.178573 0.178573 
0.406467 0.407666 0.402429 0.389046 0.293562 0.188028 0.178832 0.178575 0.178571 
0.178574 0.178573 0.178573 0.405839 0.406343 0.400451 0.380474 0.274205 0.186468 
0.178805 0.178573 0.178572 0.178574 0.178573 0.178573 0.402246 0.400756 0.38932 
0.362748 0.25722 0.18523 0.178783 0.178574 0.178572 0.178574 0.178573 0.178573 
0.386299 0.380515 0.364017 0.333665 0.244973 0.1843 0.178768 0.178573 0.178572 
0.178574 0.178573 0.178573 0.350467 0.338545 0.323048 0.30348 0.236907 0.183515 
0.178747 0.178574 0.178572 0.178573 0.178573 0.178573 0.313738 0.304662 0.295751 
0.286552 0.230227 0.182688 0.178718 0.178573 0.178573 0.178573 0.178573 0.178573 
0.291695 0.289173 0.285103 0.276984 0.22257 0.181756 0.178675 0.178573 0.178573 
0.178573 0.178573 0.178573 0.279892 0.280613 0.278081 0.270007 0.213474 0.180826 
0.178636 0.17857 0.178573 0.178573 0.178573 0.178573 0.40764 0.40764 0.403366 
0.401844 0.382051 0.235619 0.180367 0.178606 0.17857 0.178574 0.178573 0.178573 
0.394041 0.397462 0.39825 0.398873 0.377886 0.22995 0.180157 0.178602 0.17857 
0.178573 0.178573 0.178573 0.391957 0.394015 0.394215 0.395901 0.374906 0.225363 
0.179976 0.1786 0.178569 0.178573 0.178573 0.178573 0.391114 0.391219 0.391431 
0.392141 0.371099 0.220428 0.179838 0.178596 0.17857 0.178573 0.178573 0.178573 
0.389926 0.389476 0.388921 0.388293 0.366473 0.215345 0.179683 0.178596 0.178569 
0.178573 0.178573 0.178573 0.388636 0.387391 0.386113 0.385176 0.358924 0.209607 
0.179532 0.178591 0.17857 0.178574 0.178573 0.178573 0.388153 0.386378 0.384395 
0.382503 0.34739 0.203659 0.179369 0.178591 0.178569 0.178574 0.178573 0.178573 
0.388038 0.385646 0.384109 0.380478 0.328524 0.198006 0.179215 0.178585 0.17857 
0.178574 0.178573 0.178573 0.388847 0.38742 0.383983 0.372207 0.304338 0.193521 
0.179081 0.178584 0.178569 0.178574 0.178573 0.178573 0.385133 0.381118 0.371854 
0.355383 0.277686 0.190216 0.178981 0.178577 0.17857 0.178574 0.178573 0.178573 
0.36378 0.35639 0.343068 0.321761 0.256902 0.187728 0.1789 0.178576 0.17857 
0.178574 0.178573 0.178573 0.325807 0.315119 0.305156 0.293042 0.243531 0.185709 
0.178838 0.178571 0.178571 0.178574 0.178573 0.178573 0.295594 0.292005 0.287027 
0.279962 0.232762 0.183853 0.178771 0.178572 0.178572 0.178573 0.178573 0.178573 
0.402796 0.402796 0.400031 0.398394 0.394775 0.295889 0.185574 0.178705 0.178569 
0.178573 0.178574 0.178573 0.385274 0.391042 0.394668 0.396064 0.392791 0.288669 
0.184845 0.178691 0.178569 0.178573 0.178574 0.178573 0.385196 0.389949 0.391778 
0.394613 0.391589 0.282171 0.184222 0.178678 0.178569 0.178573 0.178574 0.178573 
0.383957 0.387019 0.389455 0.392862 0.390316 0.274977 0.183622 0.17867 0.178569 
0.178573 0.178573 0.178573 0.383214 0.38509 0.387547 0.391348 0.388729 0.267508 
0.182993 0.178655 0.17857 0.178573 0.178573 0.178573 0.382219 0.383275 0.385872 
0.389263 0.386621 0.258974 0.182326 0.178647 0.178569 0.178574 0.178573 0.178573 
0.381396 0.382334 0.384524 0.387128 0.382991 0.249424 0.181655 0.178631 0.17857 
0.178574 0.178573 0.178573 0.380347 0.380829 0.382985 0.385754 0.37664 0.238221 
0.180999 0.178625 0.178568 0.178574 0.178573 0.178573 0.379622 0.380177 0.381673 
0.38302 0.365052 0.225962 0.180435 0.178613 0.178569 0.178574 0.178573 0.178573 
0.378357 0.37836 0.379786 0.379709 0.34535 0.213756 0.179977 0.178611 0.178569 
0.178574 0.178573 0.178573 0.377001 0.374972 0.373464 0.366125 0.315784 0.203415 
0.179605 0.178604 0.17857 0.178574 0.178573 0.178573 0.367657 0.36291 0.355609 
0.340737 0.283792 0.195878 0.179303 0.178599 0.178569 0.178574 0.178573 0.178573 
0.336432 0.32814 0.318132 0.303516 0.25937 0.190835 0.179084 0.178586 0.17857 
0.178574 0.178573 0.178573 0.393431 0.393431 0.390975 0.388122 0.383072 0.358377 
0.204062 0.179284 0.178584 0.178569 0.178574 0.178573 0.370191 0.37977 0.383783 
0.385053 0.379255 0.352818 0.201636 0.179215 0.178583 0.178569 0.178574 0.178573 
0.372846 0.378675 0.381209 0.382898 0.376888 0.347758 0.199732 0.179151 0.178581 
0.178569 0.178574 0.178573 0.371842 0.375924 0.37829 0.380736 0.374342 0.341854 
0.197738 0.179094 0.178581 0.17857 0.178574 0.178573 0.370257 0.373546 0.375786 
0.378544 0.371989 0.335348 0.195638 0.179034 0.178578 0.17857 0.178574 0.178573 
0.368565 0.371343 0.373425 0.37643 0.369633 0.327515 0.193396 0.178962 0.178578 
0.17857 0.178574 0.178573 0.366806 0.369226 0.371265 0.374291 0.367901 0.318258 
0.191107 0.178895 0.178574 0.178571 0.178574 0.178573 0.365501 0.367757 0.369543 
0.371459 0.366044 0.306812 0.188903 0.17882 0.178574 0.178571 0.178574 0.178573 
0.363676 0.365334 0.367153 0.369159 0.364422 0.292465 0.18677 0.178759 0.17857 
0.178572 0.178574 0.178573 0.362657 0.364365 0.36582 0.366975 0.361809 0.274646 
0.184719 0.178698 0.17857 0.178572 0.178574 0.178573 0.362579 0.363436 0.364938 
0.365648 0.356728 0.252005 0.182732 0.178658 0.178567 0.178573 0.178574 0.178573 
0.362028 0.363079 0.365033 0.363212 0.338181 0.228991 0.181168 0.178627 0.178568 
0.178573 0.178573 0.178573 0.354839 0.351945 0.350629 0.343852 0.310055 0.211016 
0.180216 0.178619 0.178567 0.178574 0.178573 0.178573 0.37405 0.37405 0.372456 
0.373278 0.381597 0.391575 0.247374 0.181494 0.178636 0.178569 0.178574 0.178573 
0.344306 0.358276 0.363667 0.370163 0.378099 0.38987 0.243133 0.181223 0.17863 
0.178569 0.178574 0.178573 0.350168 0.356879 0.361277 0.36802 0.375804 0.387206 
0.239631 0.180978 0.178625 0.178569 0.178574 0.178573 0.349765 0.354616 0.358626 
0.365727 0.373614 0.384387 0.236041 0.180791 0.17862 0.178569 0.178574 0.178573 
0.348231 0.352302 0.356211 0.363832 0.371573 0.381125 0.232282 0.180576 0.178617 
0.178569 0.178574 0.178573 0.346788 0.350753 0.354304 0.361936 0.369809 0.377021 
0.22798 0.180365 0.17861 0.178569 0.178574 0.178573 0.345516 0.349194 0.352513 
0.360432 0.368322 0.372048 0.223106 0.180132 0.178607 0.178569 0.178574 0.178573 
0.344493 0.348153 0.35106 0.358688 0.367377 0.36553 0.217433 0.1799 0.178599 
0.178569 0.178574 0.178573 0.343751 0.34697 0.349686 0.357261 0.366225 0.357086 
0.211054 0.179652 0.178596 0.178568 0.178574 0.178573 0.343083 0.346285 0.349303 
0.356376 0.365479 0.34592 0.204084 0.179406 0.178588 0.178569 0.178574 0.178573 
0.342813 0.345371 0.349154 0.355748 0.363415 0.329866 0.196739 0.179149 0.178586 
0.178569 0.178574 0.178573 0.342479 0.344128 0.34736 0.352043 0.35825 0.304466 
0.190339 0.178926 0.178578 0.178571 0.178574 0.178573 0.343422 0.344237 0.346833 
0.348554 0.347947 0.270724 0.185764 0.178763 0.178574 0.178572 0.178574 0.178573 
0.364557 0.364557 0.364463 0.366129 0.374114 0.376152 0.306351 0.189231 0.178896 
0.178575 0.17857 0.178574 0.323267 0.345473 0.353564 0.361175 0.370655 0.374789 
0.301307 0.188422 0.178867 0.178574 0.17857 0.178574 0.333894 0.342629 0.349823 
0.357751 0.368387 0.372377 0.296864 0.18778 0.178841 0.178573 0.17857 0.178574 
0.33479 0.340872 0.346218 0.354808 0.365668 0.370284 0.292093 0.187167 0.178823 
0.178572 0.178571 0.178574 0.33368 0.338469 0.343199 0.351523 0.363213 0.367826 
0.287002 0.186518 0.178798 0.178572 0.178571 0.178574 0.332146 0.336409 0.340419 
0.348788 0.360291 0.365248 0.281292 0.185808 0.178778 0.178571 0.178572 0.178574 
0.330508 0.334395 0.338143 0.345718 0.357359 0.362212 0.274812 0.185039 0.178749 
0.178571 0.178572 0.178574 0.328852 0.33226 0.335758 0.343293 0.354462 0.358909 
0.267345 0.184185 0.178724 0.178569 0.178572 0.178574 0.327074 0.330301 0.333545 
0.340693 0.352362 0.354887 0.258559 0.18326 0.178691 0.17857 0.178573 0.178574 
0.325485 0.328825 0.331677 0.338316 0.349109 0.35033 0.248366 0.182269 0.178665 
0.178568 0.178573 0.178573 0.324291 0.327155 0.32991 0.335587 0.347017 0.344897 
0.235985 0.181264 0.178633 0.178568 0.178574 0.178573 0.323658 0.326086 0.328282 
0.333682 0.344454 0.338311 0.221885 0.180384 0.178613 0.178567 0.178574 0.178573 
0.325391 0.327202 0.329198 0.33353 0.343549 0.326389 0.207745 0.179733 0.178596 
0.178568 0.178574 0.178573 0.360422 0.360422 0.360874 0.362074 0.366488 0.368897 
0.352349 0.213403 0.179946 0.178609 0.178567 0.178574 0.308422 0.337249 0.348895 
0.35671 0.362969 0.366928 0.349247 0.211124 0.179852 0.178607 0.178567 0.178574 
0.325042 0.335196 0.344185 0.352103 0.360307 0.365571 0.346645 0.209275 0.179767 
0.178604 0.178567 0.178574 0.326979 0.334346 0.340664 0.348328 0.357593 0.363964 
0.343784 0.207355 0.179694 0.178603 0.178567 0.178574 0.327599 0.332096 0.337073 
0.344591 0.354715 0.362652 0.340457 0.205348 0.179616 0.1786 0.178567 0.178574 
0.326269 0.330056 0.334158 0.341055 0.351881 0.361058 0.336553 0.203159 0.179525 
0.178599 0.178567 0.178574 0.324666 0.327827 0.331345 0.337788 0.348815 0.359737 
0.331697 0.20076 0.17943 0.178594 0.178568 0.178574 0.322885 0.325636 0.32886 
0.334534 0.345926 0.358013 0.325845 0.198114 0.179317 0.178592 0.178568 0.178574 
0.321153 0.323594 0.326434 0.33196 0.343193 0.356413 0.318272 0.195241 0.179201 
0.178586 0.178568 0.178574 0.319485 0.32189 0.324437 0.329487 0.341211 0.354294 
0.308753 0.192256 0.179071 0.178584 0.178569 0.178574 0.318352 0.320412 0.322905 
0.328309 0.339729 0.352803 0.296122 0.189321 0.178948 0.178577 0.17857 0.178574 
0.318125 0.320166 0.322837 0.327593 0.339419 0.351263 0.27939 0.186525 0.178826 
0.178575 0.178571 0.178574 0.317341 0.319386 0.322406 0.327409 0.338918 0.34824 
0.258912 0.183948 0.178727 0.17857 0.178573 0.178574 0.355985 0.355985 0.357562 
0.359393 0.362487 0.364922 0.357647 0.252721 0.183227 0.178736 0.178568 0.178571 
0.299012 0.331406 0.34528 0.354525 0.359109 0.362573 0.355054 0.249066 0.182884 