# vtk DataFile Version 5.1
vtk output
ASCII
DATASET POLYDATA
POINTS 1657 float
0 1.85 0.5 -0.003 1.853 0.5 -0.00604287 1.85604 0.5 
-0.0091721 1.85917 0.5 -0.0124324 1.86243 0.5 -0.0158704 1.86587 0.5 
-0.0195351 1.86954 0.5 -0.0234791 1.87348 0.5 -0.0277585 1.87776 0.5 
-0.0324346 1.88243 0.5 -0.0375743 1.88757 0.5 -0.0432509 1.89325 0.5 
-0.0495456 1.89955 0.5 -0.0565483 1.90655 0.5 -0.0643591 1.91436 0.5 
-0.0730896 1.92309 0.5 -0.0828646 1.93286 0.5 -0.0938238 1.94382 0.5 
-0.106124 1.95612 0.5 -0.11994 1.96994 0.5 -0.135471 1.98547 0.5 
-0.152937 2.00294 0.5 -0.172589 2.02259 0.5 -0.194708 2.04471 0.5 
-0.219609 2.06961 0.5 -0.247648 2.09765 0.5 -0.2744 2.1244 0.5 
-0.279226 2.12923 0.5 -0.314795 2.16479 0.5 -0.354862 2.20486 0.5 
-0.4 2.25 0.5 0 1.853 0.497 -0.003 1.856 0.497 
-0.00604287 1.85904 0.497 -0.0091721 1.86217 0.497 -0.0124324 1.86543 0.497 
-0.0158704 1.86887 0.497 -0.0195351 1.87254 0.497 -0.0234791 1.87648 0.497 
-0.0277585 1.88076 0.497 -0.0324346 1.88543 0.497 -0.0375743 1.89057 0.497 
-0.0432509 1.89625 0.497 -0.0495456 1.90255 0.497 -0.0565483 1.90955 0.497 
-0.0643591 1.91736 0.497 -0.0730896 1.92609 0.497 -0.0828646 1.93586 0.497 
-0.0938238 1.94682 0.497 -0.106124 1.95912 0.497 -0.11994 1.97294 0.497 
-0.135471 1.98847 0.497 -0.152937 2.00594 0.497 -0.172589 2.02559 0.497 
-0.194708 2.04771 0.497 -0.219609 2.07261 0.497 -0.247648 2.10065 0.497 
-0.2714 2.1244 0.497 -0.279226 2.13223 0.497 -0.314795 2.16779 0.497 
-0.354862 2.20786 0.497 -0.4 2.253 0.497 0 1.85645 0.493548 
-0.003 1.85945 0.493548 -0.00604287 1.86249 0.493548 -0.0091721 1.86562 0.493548 
-0.0124324 1.86888 0.493548 -0.0158704 1.87232 0.493548 -0.0195351 1.87599 0.493548 
-0.0234791 1.87993 0.493548 -0.0277585 1.88421 0.493548 -0.0324346 1.88889 0.493548 
-0.0375743 1.89403 0.493548 -0.0432509 1.8997 0.493548 -0.0495456 1.906 0.493548 
-0.0565483 1.913 0.493548 -0.0643591 1.92081 0.493548 -0.0730896 1.92954 0.493548 
-0.0828646 1.93932 0.493548 -0.0938238 1.95028 0.493548 -0.106124 1.96258 0.493548 
-0.11994 1.97639 0.493548 -0.135471 1.99192 0.493548 -0.152937 2.00939 0.493548 
-0.172589 2.02904 0.493548 -0.194708 2.05116 0.493548 -0.219609 2.07606 0.493548 
-0.247648 2.1041 0.493548 -0.267948 2.1244 0.493548 -0.279226 2.13568 0.493548 
-0.314795 2.17125 0.493548 -0.354862 2.21131 0.493548 -0.4 2.25645 0.493548 
0 1.86042 0.489579 -0.003 1.86342 0.489579 -0.00604287 1.86646 0.489579 
-0.0091721 1.86959 0.489579 -0.0124324 1.87285 0.489579 -0.0158704 1.87629 0.489579 
-0.0195351 1.87996 0.489579 -0.0234791 1.8839 0.489579 -0.0277585 1.88818 0.489579 
-0.0324346 1.89286 0.489579 -0.0375743 1.898 0.489579 -0.0432509 1.90367 0.489579 
-0.0495456 1.90997 0.489579 -0.0565483 1.91697 0.489579 -0.0643591 1.92478 0.489579 
-0.0730896 1.93351 0.489579 -0.0828646 1.94329 0.489579 -0.0938238 1.95424 0.489579 
-0.106124 1.96654 0.489579 -0.11994 1.98036 0.489579 -0.135471 1.99589 0.489579 
-0.152937 2.01336 0.489579 -0.172589 2.03301 0.489579 -0.194708 2.05513 0.489579 
-0.219609 2.08003 0.489579 -0.247648 2.10807 0.489579 -0.263979 2.1244 0.489579 
-0.279226 2.13965 0.489579 -0.314795 2.17522 0.489579 -0.354862 2.21528 0.489579 
-0.4 2.26042 0.489579 0 1.86498 0.485022 -0.003 1.86798 0.485022 
-0.00604287 1.87102 0.485022 -0.0091721 1.87415 0.485022 -0.0124324 1.87741 0.485022 
-0.0158704 1.88085 0.485022 -0.0195351 1.88451 0.485022 -0.0234791 1.88846 0.485022 
-0.0277585 1.89274 0.485022 -0.0324346 1.89741 0.485022 -0.0375743 1.90255 0.485022 
-0.0432509 1.90823 0.485022 -0.0495456 1.91452 0.485022 -0.0565483 1.92153 0.485022 
-0.0643591 1.92934 0.485022 -0.0730896 1.93807 0.485022 -0.0828646 1.94784 0.485022 
-0.0938238 1.9588 0.485022 -0.106124 1.9711 0.485022 -0.11994 1.98492 0.485022 
-0.135471 2.00045 0.485022 -0.152937 2.01792 0.485022 -0.172589 2.03757 0.485022 
-0.194708 2.05969 0.485022 -0.219609 2.08459 0.485022 -0.247648 2.11263 0.485022 
-0.259422 2.1244 0.485022 -0.279226 2.1442 0.485022 -0.314795 2.17977 0.485022 
-0.354862 2.21984 0.485022 -0.4 2.26498 0.485022 0 1.8702 0.479796 
-0.003 1.8732 0.479796 -0.00604287 1.87625 0.479796 -0.0091721 1.87938 0.479796 
-0.0124324 1.88264 0.479796 -0.0158704 1.88607 0.479796 -0.0195351 1.88974 0.479796 
-0.0234791 1.89368 0.479796 -0.0277585 1.89796 0.479796 -0.0324346 1.90264 0.479796 
-0.0375743 1.90778 0.479796 -0.0432509 1.91345 0.479796 -0.0495456 1.91975 0.479796 
-0.0565483 1.92675 0.479796 -0.0643591 1.93456 0.479796 -0.0730896 1.94329 0.479796 
-0.0828646 1.95307 0.479796 -0.0938238 1.96403 0.479796 -0.106124 1.97633 0.479796 
-0.11994 1.99014 0.479796 -0.135471 2.00568 0.479796 -0.152937 2.02314 0.479796 
-0.172589 2.04279 0.479796 -0.194708 2.06491 0.479796 -0.219609 2.08981 0.479796 
-0.247648 2.11785 0.479796 -0.254196 2.1244 0.479796 -0.279226 2.14943 0.479796 
-0.314795 2.185 0.479796 -0.354862 2.22507 0.479796 -0.4 2.2702 0.479796 
0 1.87619 0.473812 -0.003 1.87919 0.473812 -0.00604287 1.88223 0.473812 
-0.0091721 1.88536 0.473812 -0.0124324 1.88862 0.473812 -0.0158704 1.89206 0.473812 
-0.0195351 1.89572 0.473812 -0.0234791 1.89967 0.473812 -0.0277585 1.90395 0.473812 
-0.0324346 1.90862 0.473812 -0.0375743 1.91376 0.473812 -0.0432509 1.91944 0.473812 
-0.0495456 1.92573 0.473812 -0.0565483 1.93274 0.473812 -0.0643591 1.94055 0.473812 
-0.0730896 1.94928 0.473812 -0.0828646 1.95905 0.473812 -0.0938238 1.97001 0.473812 
-0.106124 1.98231 0.473812 -0.11994 1.99613 0.473812 -0.135471 2.01166 0.473812 
-0.152937 2.02912 0.473812 -0.172589 2.04878 0.473812 -0.194708 2.0709 0.473812 
-0.219609 2.0958 0.473812 -0.247648 2.12384 0.473812 -0.248212 2.1244 0.473812 
-0.247648 2.1244 0.473248 -0.279226 2.15541 0.473812 -0.314795 2.19098 0.473812 
-0.354862 2.23105 0.473812 -0.4 2.27619 0.473812 0 1.88303 0.466971 
-0.003 1.88603 0.466971 -0.00604287 1.88907 0.466971 -0.0091721 1.8922 0.466971 
-0.0124324 1.89546 0.466971 -0.0158704 1.8989 0.466971 -0.0195351 1.90256 0.466971 
-0.0234791 1.90651 0.466971 -0.0277585 1.91079 0.466971 -0.0324346 1.91546 0.466971 
-0.0375743 1.9206 0.466971 -0.0432509 1.92628 0.466971 -0.0495456 1.93257 0.466971 
-0.0565483 1.93958 0.466971 -0.0643591 1.94739 0.466971 -0.0730896 1.95612 0.466971 
-0.0828646 1.96589 0.466971 -0.0938238 1.97685 0.466971 -0.106124 1.98915 0.466971 
-0.11994 2.00297 0.466971 -0.135471 2.0185 0.466971 -0.152937 2.03597 0.466971 
-0.172589 2.05562 0.466971 -0.194708 2.07774 0.466971 -0.219609 2.10264 0.466971 
-0.241371 2.1244 0.466971 -0.247648 2.13068 0.466971 -0.279226 2.16226 0.466971 
-0.314795 2.19782 0.466971 -0.354862 2.23789 0.466971 -0.4 2.28303 0.466971 
0 1.89084 0.459165 -0.003 1.89384 0.459165 -0.00604287 1.89688 0.459165 
-0.0091721 1.90001 0.459165 -0.0124324 1.90327 0.459165 -0.0158704 1.90671 0.459165 
-0.0195351 1.91037 0.459165 -0.0234791 1.91431 0.459165 -0.0277585 1.91859 0.459165 
-0.0324346 1.92327 0.459165 -0.0375743 1.92841 0.459165 -0.0432509 1.93409 0.459165 
-0.0495456 1.94038 0.459165 -0.0565483 1.94738 0.459165 -0.0643591 1.95519 0.459165 
-0.0730896 1.96392 0.459165 -0.0828646 1.9737 0.459165 -0.0938238 1.98466 0.459165 
-0.106124 1.99696 0.459165 -0.11994 2.01078 0.459165 -0.135471 2.02631 0.459165 
-0.152937 2.04377 0.459165 -0.172589 2.06342 0.459165 -0.194708 2.08554 0.459165 
-0.219609 2.11044 0.459165 -0.233565 2.1244 0.459165 -0.247648 2.13848 0.459165 
-0.279226 2.17006 0.459165 -0.314795 2.20563 0.459165 -0.354862 2.2457 0.459165 
-0.4 2.29083 0.459165 0 1.89972 0.450279 -0.003 1.90272 0.450279 
-0.00604287 1.90576 0.450279 -0.0091721 1.90889 0.450279 -0.0124324 1.91215 0.450279 
-0.0158704 1.91559 0.450279 -0.0195351 1.91926 0.450279 -0.0234791 1.9232 0.450279 
-0.0277585 1.92748 0.450279 -0.0324346 1.93216 0.450279 -0.0375743 1.9373 0.450279 
-0.0432509 1.94297 0.450279 -0.0495456 1.94927 0.450279 -0.0565483 1.95627 0.450279 
-0.0643591 1.96408 0.450279 -0.0730896 1.97281 0.450279 -0.0828646 1.98259 0.450279 
-0.0938238 1.99354 0.450279 -0.106124 2.00585 0.450279 -0.11994 2.01966 0.450279 
-0.135471 2.03519 0.450279 -0.152937 2.05266 0.450279 -0.172589 2.07231 0.450279 
-0.194708 2.09443 0.450279 -0.219609 2.11933 0.450279 -0.224679 2.1244 0.450279 
-0.219609 2.1244 0.445209 -0.247648 2.14737 0.450279 -0.279226 2.17895 0.450279 
-0.314795 2.21452 0.450279 -0.354862 2.25458 0.450279 -0.4 2.29972 0.450279 
0 1.90981 0.440188 -0.003 1.91281 0.440188 -0.00604287 1.91585 0.440188 
-0.0091721 1.91898 0.440188 -0.0124324 1.92224 0.440188 -0.0158704 1.92568 0.440188 
-0.0195351 1.92935 0.440188 -0.0234791 1.93329 0.440188 -0.0277585 1.93757 0.440188 
-0.0324346 1.94225 0.440188 -0.0375743 1.94739 0.440188 -0.0432509 1.95306 0.440188 
-0.0495456 1.95936 0.440188 -0.0565483 1.96636 0.440188 -0.0643591 1.97417 0.440188 
-0.0730896 1.9829 0.440188 -0.0828646 1.99268 0.440188 -0.0938238 2.00364 0.440188 
-0.106124 2.01594 0.440188 -0.11994 2.02975 0.440188 -0.135471 2.04528 0.440188 
-0.152937 2.06275 0.440188 -0.172589 2.0824 0.440188 -0.194708 2.10452 0.440188 
-0.214588 2.1244 0.440188 -0.219609 2.12942 0.440188 -0.247648 2.15746 0.440188 
-0.279226 2.18904 0.440188 -0.314795 2.22461 0.440188 -0.354862 2.26467 0.440188 
-0.4 2.30981 0.440188 0 1.92124 0.428762 -0.003 1.92424 0.428762 
-0.00604287 1.92728 0.428762 -0.0091721 1.93041 0.428762 -0.0124324 1.93367 0.428762 
-0.0158704 1.93711 0.428762 -0.0195351 1.94077 0.428762 -0.0234791 1.94472 0.428762 
-0.0277585 1.949 0.428762 -0.0324346 1.95367 0.428762 -0.0375743 1.95881 0.428762 
-0.0432509 1.96449 0.428762 -0.0495456 1.97078 0.428762 -0.0565483 1.97779 0.428762 
-0.0643591 1.9856 0.428762 -0.0730896 1.99433 0.428762 -0.0828646 2.0041 0.428762 
-0.0938238 2.01506 0.428762 -0.106124 2.02736 0.428762 -0.11994 2.04118 0.428762 
-0.135471 2.05671 0.428762 -0.152937 2.07418 0.428762 -0.172589 2.09383 0.428762 
-0.194708 2.11595 0.428762 -0.203162 2.1244 0.428762 -0.194708 2.1244 0.420308 
-0.219609 2.14085 0.428762 -0.247648 2.16889 0.428762 -0.279226 2.20046 0.428762 
[...]
POINT_DATA 1657
FIELD FieldData 5
pressure 1 1657 float
0.178573 0.178573 0.178573 0.178573 0.178573 0.178573 0.178573 0.178573 0.178573 
0.178573 0.178573 0.178573 0.178573 0.178573 0.178573 0.178573 0.178573 0.178573 
0.178573 0.178573 0.178573 0.178573 0.178573 0.178573 0.178573 0.178573 0.178573 
0.178573 0.178573 0.178573 0.178573 0.178573 0.178573 0.178573 0.178573 0.178573 
0.178573 0.178573 0.178573 0.178573 0.178573 0.178573 0.178573 0.178573 0.178573 
0.178573 0.178573 0.178573 0.178573 0.178573 0.178573 0.178573 0.178573 0.178573 
0.178573 0.178573 0.178573 0.178573 0.178573 0.178573 0.178573 0.178573 0.178573 
0.178573 0.178573 0.178573 0.178573 0.178573 0.178573 0.178573 0.178573 0.178573 
0.178573 0.178573 0.178573 0.178573 0.178573 0.178573 0.178573 0.178573 0.178573 
0.178573 0.178573 0.178573 0.178573 0.178573 0.178573 0.178573 0.178573 0.178573 
0.178573 0.178573 0.178573 0.178573 0.178573 0.178573 0.178573 0.178573 0.178573 
0.178573 0.178573 0.178573 0.178573 0.178573 0.178573 0.178573 0.178573 0.178573 
0.178573 0.178573 0.178573 0.178573 0.178573 0.178573 0.178573 0.178573 0.178573 
0.178573 0.178573 0.178573 0.178573 0.178573 0.178573 0.178573 0.178573 0.178573 
0.178573 0.178573 0.178573 0.178573 0.178573 0.178573 0.178573 0.178573 0.178573 
0.178573 0.178573 0.178573 0.178573 0.178573 0.178573 0.178573 0.178573 0.178573 
0.178573 0.178573 0.178573 0.178573 0.178573 0.178573 0.178573 0.178573 0.178573 
0.178573 0.178573 0.178573 0.178573 0.178573 0.178573 0.178573 0.178573 0.178573 
0.178573 0.178573 0.178573 0.178573 0.178573 0.178573 0.178573 0.178573 0.178573 
0.178573 0.178573 0.178573 0.178573 0.178573 0.178573 0.178573 0.178573 0.178573 
0.178573 0.178573 0.178573 0.178573 0.178573 0.178573 0.178573 0.178573 0.178573 
0.178573 0.178573 0.178573 0.178573 0.178573 0.178573 0.178573 0.178573 0.178573 
0.178573 0.178573 0.178573 0.178573 0.178573 0.178573 0.178573 0.178573 0.178573 
0.178573 0.178573 0.178573 0.178573 0.178573 0.178573 0.178573 0.178573 0.178573 
0.178573 0.178573 0.178573 0.178573 0.178573 0.178573 0.178573 0.178573 0.178573 
0.178573 0.178573 0.178573 0.178573 0.178573 0.178573 0.178573 0.178573 0.178573 
0.178573 0.178573 0.178573 0.178573 0.178573 0.178573 0.178573 0.178573 0.178573 
0.178573 0.178573 0.178573 0.178573 0.178573 0.178573 0.178573 0.178573 0.178573 
0.178573 0.178573 0.178573 0.178573 0.178573 0.178573 0.178573 0.178573 0.178573 
0.178573 0.178573 0.178573 0.178573 0.178573 0.178573 0.178573 0.178573 0.178573 
0.178573 0.178573 0.178573 0.178573 0.178573 0.178573 0.178573 0.178573 0.178573 
0.178573 0.178573 0.178573 0.178573 0.178573 0.178573 0.178573 0.178573 0.178573 
0.178573 0.178573 0.178573 0.178573 0.178573 0.178573 0.178573 0.178573 0.178573 
0.178573 0.178573 0.178573 0.178573 0.178573 0.178573 0.178573 0.178573 0.178573 
0.178573 0.178573 0.178573 0.178573 0.178573 0.178573 0.178573 0.178573 0.178573 
0.178573 0.178573 0.178573 0.178573 0.178573 0.178573 0.178573 0.178573 0.178573 
0.178573 0.178573 0.178573 0.178573 0.178573 0.178573 0.178573 0.178573 0.178573 
0.178573 0.178573 0.178573 0.178573 0.178573 0.178573 0.178573 0.178573 0.178573 
0.178573 0.178573 0.178573 0.178573 0.178573 0.178573 0.178573 0.178573 0.178573 
0.178573 0.178573 0.178573 0.178573 0.178573 0.178573 0.178573 0.178573 0.178573 
0.178573 0.178573 0.178573 0.178573 0.178573 0.178573 0.178573 0.178573 0.178573 
0.178573 0.178573 0.178573 0.178573 0.178573 0.178573 0.178573 0.178573 0.178573 
0.178573 0.178573 0.178573 0.178573 0.178573 0.178573 0.178573 0.178573 0.178573 
0.178573 0.178573 0.178573 0.178573 0.178573 0.178573 0.178573 0.178573 0.178573 
0.178573 0.178573 0.178573 0.178573 0.178573 0.178573 0.178573 0.178573 0.178573 
0.178573 0.178573 0.178573 0.178573 0.178573 0.178573 0.178573 0.178573 0.178573 
0.178573 0.178573 0.178573 0.178573 0.178573 0.178573 0.178573 0.178573 0.178573 
0.178573 0.178573 0.178573 0.178573 0.178573 0.178573 0.178573 0.178573 0.178573 
0.178573 0.178573 0.178573 0.178573 0.178573 0.178573 0.178573 0.178573 0.178573 
0.178573 0.178573 0.178573 0.178573 0.178573 0.178573 0.178573 0.178573 0.178573 
0.178573 0.178573 0.178573 0.178573 0.178573 0.178573 0.178573 0.178573 0.178573 
0.178573 0.178573 0.178573 0.178573 0.178573 0.178573 0.178573 0.178573 0.178573 
0.178573 0.178573 0.178573 0.178573 0.178573 0.178573 0.178573 0.178573 0.178573 
0.178573 0.178573 0.178573 0.178573 0.178573 0.178573 0.178573 0.178573 0.178573 
0.178573 0.178573 0.178573 0.178573 0.178573 0.178573 0.178573 0.178573 0.178573 
0.178573 0.178573 0.178573 0.178573 0.178573 0.178573 0.178573 0.178573 0.178573 
0.178573 0.178573 0.178573 0.178573 0.178573 0.178573 0.178573 0.178573 0.178573 
0.178573 0.178573 0.178573 0.178573 0.178573 0.178573 0.178573 0.178573 0.178573 
0.178573 0.178573 0.178573 0.178573 0.178573 0.178573 0.178573 0.178573 0.178573 
0.178573 0.178573 0.178573 0.178573 0.178573 0.178573 0.178573 0.178573 0.178573 
0.178573 0.178573 0.178573 0.178573 0.178573 0.178573 0.178573 0.178573 0.178573 
0.178573 0.178573 0.178573 0.178573 0.178573 0.178573 0.178573 0.178573 0.178573 
0.178573 0.178573 0.178573 0.178573 0.178573 0.178573 0.178573 0.178573 0.178573 
0.178573 0.178573 0.178573 0.178573 0.178573 0.178573 0.178573 0.178573 0.178573 
0.178573 0.178573 0.178573 0.178573 0.178573 0.178573 0.178573 0.178573 0.178573 
0.178573 0.178573 0.178573 0.178573 0.178573 0.178573 0.178573 0.178573 0.178573 
0.178573 0.178573 0.178573 0.178573 0.178573 0.178573 0.178573 0.178573 0.178573 
0.178573 0.178573 0.178573 0.178573 0.178573 0.178573 0.178573 0.178573 0.178573 
0.178573 0.178573 0.178573 0.178573 0.178573 0.178573 0.178573 0.178573 0.178573 
0.178573 0.178573 0.178573 0.178573 0.178573 0.178573 0.178573 0.178573 0.178573 
0.178573 0.178573 0.178573 0.178573 0.178573 0.178573 0.178573 0.178573 0.178573 
0.178573 0.178573 0.178573 0.178573 0.178573 0.178573 0.178573 0.178573 0.178573 
0.178573 0.178573 0.178573 0.178573 0.178573 0.178573 0.178573 0.178573 0.178573 
0.178573 0.178573 0.178573 0.178573 0.178573 0.178573 0.178573 0.178573 0.178573 
0.178573 0.178573 0.178573 0.178573 0.178573 0.178573 0.178573 0.178573 0.178573 
0.178573 0.178573 0.178573 0.178573 0.178573 0.178573 0.178573 0.178573 0.178573 
0.178573 0.178573 0.178573 0.178573 0.178573 0.178573 0.178573 0.178573 0.178573 
0.178573 0.178573 0.178573 0.178573 0.178573 0.178573 0.178573 0.178573 0.178573 
0.178573 0.178573 0.178573 0.178573 0.178573 0.178573 0.178573 0.178573 0.178573 
0.178573 0.178573 0.178573 0.178573 0.178573 0.178573 0.178573 0.178573 0.178573 
0.178573 0.178573 0.178573 0.178573 0.178573 0.178573 0.178573 0.178573 0.178573 
0.178573 0.178573 0.178573 0.178573 0.178573 0.178573 0.178573 0.178573 0.178573 
0.178573 0.178573 0.178573 0.178573 0.178573 0.178573 0.178573 0.178573 0.178573 
0.178573 0.178573 0.178573 0.178573 0.178573 0.178573 0.178573 0.178573 0.178573 
0.178573 0.178573 0.178573 0.178573 0.178573 0.178573 0.178573 0.178573 0.178573 
0.178573 0.178573 0.178573 0.178573 0.178573 0.178573 0.178573 0.178573 0.178573 
0.178573 0.178573 0.178573 0.178573 0.178573 0.178573 0.178573 0.178573 0.178573 
0.178573 0.178573 0.178573 0.178573 0.178573 0.178573 0.178573 0.178573 0.178573 
0.178573 0.178573 0.178573 0.178573 0.178573 0.178573 0.178573 0.178573 0.178573 
0.178573 0.178573 0.178573 0.178573 0.178573 0.178573 0.178573 0.178573 0.178573 
0.178573 0.178573 0.178573 0.178573 0.178573 0.178573 0.178573 0.178573 0.178573 
0.178573 0.178573 0.178573 0.178573 0.178573 0.178573 0.178573 0.178573 0.178573 
0.178573 0.178573 0.178573 0.178573 0.178573 0.178573 0.178573 0.178573 0.178573 
0.178573 0.178573 0.178573 0.178573 0.178573 0.178573 0.178573 0.178573 0.178573 
0.178573 0.178573 0.178573 0.178573 0.178573 0.178573 0.178573 0.178573 0.178573 
0.178573 0.178573 0.178573 0.178573 0.178573 0.178573 0.178573 0.178573 0.178573 
0.178573 0.178573 0.178573 0.178573 0.178573 0.178573 0.178573 0.178573 0.178573 
0.178573 0.178573 0.178573 0.178573 0.178573 0.178573 0.178573 0.178573 0.178573 
0.178573 0.178573 0.178573 0.178573 0.178573 0.178573 0.178573 0.178573 0.178573 
0.178573 0.178573 0.178573 0.178573 0.178573 0.178573 0.178573 0.178573 0.178573 
0.178573 0.178573 0.178573 0.178573 0.178573 0.178573 0.178573 0.178573 0.178573 
0.178573 0.178573 0.178573 0.178573 0.178573 0.178573 0.178573 0.178573 0.178573 
0.178573 0.178573 0.178573 0.178573 0.178573 0.178573 0.178573 0.178573 0.178573 
0.178573 0.178573 0.178573 0.178573 0.178573 0.178573 0.178573 0.178573 0.178573 
0.178573 0.178573 0.178573 0.178573 0.178573 0.178573 0.178573 0.178573 0.178573 
0.178573 0.178573 0.178573 0.178573 0.178573 0.178573 0.178573 0.178573 0.178573 
0.178573 0.178573 0.178573 0.178573 0.178573 0.178573 0.178573 0.178573 0.178573 
0.178573 0.178573 0.178573 0.178573 0.178573 0.178573 0.178573 0.178573 0.178573 
0.178573 0.178573 0.178573 0.178573 0.178573 0.178573 0.178573 0.178573 0.178573 
0.178573 0.178573 0.178573 0.178573 0.178573 0.178573 0.178573 0.178573 0.178573 
0.178573 0.178573 0.178573 0.178573 0.178573 0.178573 0.178573 0.178573 0.178573 
0.178573 0.178573 0.178573 0.178573 0.178573 0.178573 0.178573 0.178573 0.178573 
0.178573 0.178573 0.178573 0.178573 0.178573 0.178573 0.178573 0.178573 0.178573 
0.178573 0.178573 0.178573 0.178573 0.178573 0.178573 0.178573 0.178573 0.178573 
0.178573 0.178573 0.178573 0.178573 0.178573 0.178573 0.178573 0.178573 0.178573 
0.178573 0.178573 0.178573 0.178573 0.178573 0.178573 0.178573 0.178573 0.178573 
0.178573 0.178573 0.178573 0.178573 0.178573 0.178573 0.178573 0.178573 0.178573 
0.178573 0.178573 0.178573 0.178573 0.178573 0.178573 0.178573 0.178573 0.178573 
0.178573 0.178573 0.178573 0.178573 0.178573 0.178573 0.178573 0.178573 0.178573 
0.178573 0.178573 0.178573 0.178573 0.178573 0.178573 0.178573 0.178573 0.178573 
0.178573 0.178573 0.178573 0.178573 0.178573 0.178573 0.178573 0.178573 0.178573 
0.178573 0.178573 0.178573 0.178573 0.178573 0.178573 0.178573 0.178573 0.178573 
0.178573 0.178573 0.178573 0.178573 0.178573 0.178573 0.178573 0.178573 0.178573 
0.178573 0.178573 0.178573 0.178573 0.178573 0.178573 0.178573 0.178573 0.178573 
0.178573 0.178573 0.178573 0.178573 0.178573 0.178573 0.178573 0.178573 0.178573 
0.178573 0.178573 0.178573 0.178573 0.178573 0.178573 0.178573 0.178573 0.178573 
0.178573 0.178573 0.178573 0.178573 0.178573 0.178573 0.178573 0.178573 0.178573 
0.178573 0.178573 0.178573 0.178573 0.178573 0.178573 0.178573 0.178573 0.178573 
0.178573 0.178573 0.178573 0.178573 0.178573 0.178573 0.178573 0.178573 0.178573 
0.178573 0.178573 0.178573 0.178573 0.178573 0.178573 0.178573 0.178573 0.178573 
0.178573 0.178573 0.178573 0.178573 0.178573 0.178573 0.178573 0.178573 0.178573 
0.178573 0.178573 0.178573 0.178573 0.178573 0.178573 0.178573 0.178573 0.178573 
0.178573 0.178573 0.178573 0.178573 0.178573 0.178573 0.178573 0.178573 0.178573 
0.178573 0.178573 0.178573 0.178573 0.178573 0.178573 0.178573 0.178573 0.178573 
0.178573 0.178573 0.178573 0.178573 0.178573 0.178573 0.178573 0.178573 0.178573 
0.178573 0.178573 0.178573 0.178573 0.178573 0.178573 0.178573 0.178573 0.178573 
0.178573 0.178573 0.178573 0.178573 0.178573 0.178573 0.178573 0.178573 0.178573 
0.178573 0.178573 0.178573 0.178573 0.178573 0.178573 0.178573 0.178573 0.178573 
0.178573 0.178573 0.178573 0.178573 0.178573 0.178573 0.178573 0.178573 0.178573 
0.178573 0.178573 0.178573 0.178573 0.178573 0.178573 0.178573 0.178573 0.178573 
0.178573 0.178573 0.178573 0.178573 0.178573 0.178573 0.178573 0.178573 0.178573 
0.178573 0.178573 0.178573 0.178573 0.178573 0.178573 0.178573 0.178573 0.178573 
0.178573 0.178573 0.178573 0.178573 0.178573 0.178573 0.178573 0.178573 0.178573 
0.178573 0.178573 0.178573 0.178573 0.178573 0.178573 0.178573 0.178573 0.178573 
0.178573 0.178573 0.178573 0.178573 0.178573 0.178573 0.178573 0.178573 0.178573 
0.178573 0.178573 0.178573 0.178573 0.178573 0.178573 0.178573 0.178573 0.178573 
0.178573 0.178573 0.178573 0.178573 0.178573 0.178573 0.178573 0.178573 0.178573 
0.178573 0.178573 0.178573 0.178573 0.178573 0.178573 0.178573 0.178573 0.178573 
0.178573 0.178573 0.178573 0.178573 0.178573 0.178573 0.178573 0.178573 0.178573 
0.178573 0.178573 0.178573 0.178573 0.178573 0.178573 0.178573 0.178573 0.178573 
0.178573 0.178573 0.178573 0.178573 0.178573 0.178573 0.178573 0.178573 0.178573 
0.178573 0.178573 0.178573 0.178573 0.178573 0.178573 0.178573 0.178573 0.178573 
0.178573 0.178573 0.178573 0.178573 0.178573 0.178573 0.178573 0.178573 0.178573 
0.178573 0.178573 0.178573 0.178573 0.178573 0.178573 0.178573 0.178573 0.178573 
0.178573 0.178573 0.178573 0.178573 0.178573 0.178573 0.178573 0.178573 0.178573 
0.178573 0.178573 0.178573 0.178573 0.178573 0.178573 0.178573 0.178573 0.178573 
0.178573 0.178573 0.178573 0.178573 0.178573 0.178573 0.178573 0.178573 0.178573 
0.178573 0.178573 0.178573 0.178573 0.178573 0.178573 0.178573 0.178573 0.178573 
0.178573 0.178573 0.178573 0.178573 0.178573 0.178573 0.178573 0.178573 0.178573 
0.178573 0.178573 0.178573 0.178573 0.178573 0.178573 0.178573 0.178573 0.178573 
0.178573 0.178573 0.178573 0.178573 0.178573 0.178573 0.178573 0.178573 0.178573 
0.178573 0.178573 0.178573 0.178573 0.178573 0.178573 0.178573 0.178573 0.178573 
0.178573 0.178573 0.178573 0.178573 0.178573 0.178573 0.178573 0.178573 0.178573 
0.178573 0.178573 0.178573 0.178573 0.178573 0.178573 0.178573 0.178573 0.178573 
0.178573 0.178573 0.178573 0.178573 0.178573 0.178573 0.178573 0.178573 0.178573 
0.178573 0.178573 0.178573 0.178573 0.178573 0.178573 0.178573 0.178573 0.178573 
0.178573 0.178573 0.178573 0.178573 0.178573 0.178573 0.178573 0.178573 0.178573 
0.178573 0.178573 0.178573 0.178573 0.178573 0.178573 0.178573 0.178573 0.178573 
0.178573 0.178573 0.178573 0.178573 0.178573 0.178573 0.178573 0.178573 0.178573 
0.178573 0.178573 0.178573 0.178573 0.178573 0.178573 0.178573 0.178573 0.178573 
0.178573 0.178573 0.178573 0.178573 0.178573 0.178573 0.178573 0.178573 0.178573 
0.178573 0.178573 0.178573 0.178573 0.178573 0.178573 0.178573 0.178573 0.178573 
0.178573 0.178573 0.178573 0.178573 0.178573 0.178573 0.178573 0.178573 0.178573 
0.178573 0.178573 0.178573 0.178573 0.178573 0.178573 0.178573 0.178573 0.178573 
0.178573 0.178573 0.178573 0.178573 0.178573 0.178573 0.178573 0.178573 0.178573 
0.178573 0.178573 0.178573 0.178573 0.178573 0.178573 0.178573 0.178573 0.178573 
0.178573 0.178573 0.178573 0.178573 0.178573 0.178573 0.178573 0.178573 0.178573 
0.178573 0.178573 0.178573 0.178573 0.178573 0.178573 0.178573 0.178573 0.178573 
0.178573 0.178573 0.178573 0.178573 0.178573 0.178573 0.178573 0.178573 0.178573 
0.178573 0.178573 0.178573 0.178573 0.178573 0.178573 0.178573 0.178573 0.178573 
0.178573 0.178573 0.178573 0.178573 0.178573 0.178573 0.178573 0.178573 0.178573 
0.178573 0.178573 0.178573 0.178573 0.178573 0.178573 0.178573 0.178573 0.178573 
0.178573 0.178573 0.178573 0.178573 0.178573 0.178573 0.178573 0.178573 0.178573 
0.178573 0.178573 0.178573 0.178573 0.178573 0.178573 0.178573 0.178573 0.178573 
0.178573 
velocity_u 1 1657 float
1 1 1 1 1 1 1 1 1 
1 1 1 1 1 1 1 1 1 
1 1 1 1 1 1 1 1 1 
1 1 1 1 1 1 1 1 1 
1 1 1 1 1 1 1 1 1 
1 1 1 1 1 1 1 1 1 
1 1 1 1 1 1 1 1 1 
1 1 1 1 1 1 1 1 1 
1 1 1 1 1 1 1 1 1 
1 1 1 1 1 1 1 1 1 
1 1 1 1 1 1 1 1 1 
1 1 1 1 1 1 1 1 1 
1 1 1 1 1 1 1 1 1 
1 1 1 1 1 1 1 1 1 
1 1 1 1 1 1 1 1 1 
1 1 1 1 1 1 1 1 1 
1 1 1 1 1 1 1 1 1 
1 1 1 1 1 1 1 1 1 
1 1 1 1 1 1 1 1 1 
1 1 1 1 1 1 1 1 1 
1 1 1 1 1 1 1 1 1 
1 1 1 1 1 1 1 1 1 
1 1 1 1 1 1 1 1 1 
1 1 1 1 1 1 1 1 1 
1 1 1 1 1 1 1 1 1 
1 1 1 1 1 1 1 1 1 
1 1 1 1 1 1 1 1 1 
1 1 1 1 1 1 1 1 1 
1 1 1 1 1 1 1 1 1 
1 1 1 1 1 1 1 1 1 
1 1 1 1 1 1 1 1 1 
1 1 1 1 1 1 1 1 1 
1 1 1 1 1 1 1 1 1 
1 1 1 1 1 1 1 1 1 
1 1 1 1 1 1 1 1 1 
1 1 1 1 1 1 1 1 1 
1 1 1 1 1 1 1 1 1 
1 1 1 1 1 1 1 1 1 
1 1 1 1 1 1 1 1 1 
1 1 1 1 1 1 1 1 1 
1 1 1 1 1 1 1 1 1 
1 1 1 1 1 1 1 1 1 
1 1 1 1 1 1 1 1 1 
1 1 1 1 1 1 1 1 1 
1 1 1 1 1 1 1 1 1 
1 1 1 1 1 1 1 1 1 
1 1 1 1 1 1 1 1 1 
1 1 1 1 1 1 1 1 1 
1 1 1 1 1 1 1 1 1 
1 1 1 1 1 1 1 1 1 
1 1 1 1 1 1 1 1 1 
1 1 1 1 1 1 1 1 1 
1 1 1 1 1 1 1 1 1 
1 1 1 1 1 1 1 1 1 
1 1 1 1 1 1 1 1 1 
1 1 1 1 1 1 1 1 1 
1 1 1 1 1 1 1 1 1 
1 1 1 1 1 1 1 1 1 
1 1 1 1 1 1 1 1 1 
1 1 1 1 1 1 1 1 1 
1 1 1 1 1 1 1 1 1 
1 1 1 1 1 1 1 1 1 
1 1 1 1 1 1 1 1 1 
1 1 1 1 1 1 1 1 1 
1 1 1 1 1 1 1 1 1 
1 1 1 1 1 1 1 1 1 
1 1 1 1 1 1 1 1 1 
1 1 1 1 1 1 1 1 1 
1 1 1 1 1 1 1 1 1 
1 1 1 1 1 1 1 1 1 
1 1 1 1 1 1 1 1 1 
1 1 1 1 1 1 1 1 1 
1 1 1 1 1 1 1 1 1 
1 1 1 1 1 1 1 1 1 
1 1 1 1 1 1 1 1 1 
1 1 1 1 1 1 1 1 1 
1 1 1 1 1 1 1 1 1 
1 1 1 1 1 1 1 1 1 
1 1 1 1 1 1 1 1 1 
1 1 1 1 1 1 1 1 1 
1 1 1 1 1 1 1 1 1 
1 1 1 1 1 1 1 1 1 
1 1 1 1 1 1 1 1 1 
1 1 1 1 1 1 1 1 1 
1 1 1 1 1 1 1 1 1 
1 1 1 1 1 1 1 1 1 
1 1 1 1 1 1 1 1 1 
1 1 1 1 1 1 1 1 1 
1 1 1 1 1 1 1 1 1 
1 1 1 1 1 1 1 1 1 
1 1 1 1 1 1 1 1 1 
1 1 1 1 1 1 1 1 1 
1 1 1 1 1 1 1 1 1 
1 1 1 1 1 1 1 1 1 
1 1 1 1 1 1 1 1 1 
1 1 1 1 1 1 1 1 1 
1 1 1 1 1 1 1 1 1 
1 1 1 1 1 1 1 1 1 
1 1 1 1 1 1 1 1 1 
1 1 1 1 1 1 1 1 1 
1 1 1 1 1 1 1 1 1 
1 1 1 1 1 1 1 1 1 
1 1 1 1 1 1 1 1 1 
1 1 1 1 1 1 1 1 1 
1 1 1 1 1 1 1 1 1 
1 1 1 1 1 1 1 1 1 
1 1 1 1 1 1 1 1 1 
1 1 1 1 1 1 1 1 1 
1 1 1 1 1 1 1 1 1 
1 1 1 1 1 1 1 1 1 
1 1 1 1 1 1 1 1 1 
1 1 1 1 1 1 1 1 1 
1 1 1 1 1 1 1 1 1 
1 1 1 1 1 1 1 1 1 
1 1 1 1 1 1 1 1 1 
1 1 1 1 1 1 1 1 1 
1 1 1 1 1 1 1 1 1 
1 1 1 1 1 1 1 1 1 
1 1 1 1 1 1 1 1 1 
1 1 1 1 1 1 1 1 1 
1 1 1 1 1 1 1 1 1 
1 1 1 1 1 1 1 1 1 
1 1 1 1 1 1 1 1 1 
1 1 1 1 1 1 1 1 1 
1 1 1 1 1 1 1 1 1 
1 1 1 1 1 1 1 1 1 
1 1 1 1 1 1 1 1 1 
1 1 1 1 1 1 1 1 1 
1 1 1 1 1 1 1 1 1 
1 1 1 1 1 1 1 1 1 
1 1 1 1 1 1 1 1 1 
1 1 1 1 1 1 1 1 1 
1 1 1 1 1 1 1 1 1 
1 1 1 1 1 1 1 1 1 
1 1 1 1 1 1 1 1 1 
1 1 1 1 1 1 1 1 1 
1 1 1 1 1 1 1 1 1 
1 1 1 1 1 1 1 1 1 
1 1 1 1 1 1 1 1 1 
1 1 1 1 1 1 1 1 1 
1 1 1 1 1 1 1 1 1 
1 1 1 1 1 1 1 1 1 
1 1 1 1 1 1 1 1 1 
1 1 1 1 1 1 1 1 1 
1 1 1 1 1 1 1 1 1 
1 1 1 1 1 1 1 1 1 
1 1 1 1 1 1 1 1 1 
1 1 1 1 1 1 1 1 1 
1 1 1 1 1 1 1 1 1 
1 1 1 1 1 1 1 1 1 
1 1 1 1 1 1 1 1 1 
1 1 1 1 1 1 1 1 1 
1 1 1 1 1 1 1 1 1 
1 1 1 1 1 1 1 1 1 
1 1 1 1 1 1 1 1 1 
1 1 1 1 1 1 1 1 1 
1 1 1 1 1 1 1 1 1 
1 1 1 1 1 1 1 1 1 
1 1 1 1 1 1 1 1 1 
1 1 1 1 1 1 1 1 1 
1 1 1 1 1 1 1 1 1 
1 1 1 1 1 1 1 1 1 
1 1 1 1 1 1 1 1 1 
1 1 1 1 1 1 1 1 1 
1 1 1 1 1 1 1 1 1 
1 1 1 1 1 1 1 1 1 
1 1 1 1 1 1 1 1 1 
1 1 1 1 1 1 1 1 1 
1 1 1 1 1 1 1 1 1 
1 1 1 1 1 1 1 1 1 
1 1 1 1 1 1 1 1 1 
1 1 1 1 1 1 1 1 1 
1 1 1 1 1 1 1 1 1 
1 1 1 1 1 1 1 1 1 
1 1 1 1 1 1 1 1 1 
1 1 1 1 1 1 1 1 1 
1 1 1 1 1 1 1 1 1 
1 1 1 1 1 1 1 1 1 
1 1 1 1 1 1 1 1 1 
1 1 1 1 1 1 1 1 1 
1 1 1 1 1 1 1 1 1 
1 1 1 1 1 1 1 1 1 
1 1 1 1 1 1 1 1 1 
1 1 1 1 1 1 1 1 1 
1 
velocity_v 1 1657 float
5.69148e-09 1.86155e-09 2.50861e-09 1.69835e-09 1.64765e-09 1.06683e-09 5.8239e-10 5.43341e-11 -2.03917e-09 
-1.90325e-09 -8.76867e-10 -1.74851e-09 -1.84374e-09 -8.66735e-10 -6.36886e-10 7.46484e-10 1.35804e-09 1.09979e-09 
2.27395e-09 3.60952e-09 1.85187e-09 6.71337e-10 1.97632e-09 2.90981e-09 3.40432e-09 3.20753e-09 1.94231e-09 
1.58702e-09 2.38302e-09 7.27162e-10 1.41838e-09 5.74328e-09 1.23233e-09 2.06982e-09 1.28165e-09 1.8367e-09 
2.65423e-09 1.69255e-09 8.23979e-10 -3.61937e-10 -8.07964e-10 -6.77553e-10 -1.23773e-09 -4.67674e-10 5.8025e-10 
1.33732e-09 2.55032e-09 2.01912e-09 1.83733e-09 2.93164e-09 4.16259e-09 1.91185e-09 1.16957e-09 2.4336e-09 
3.15486e-09 3.04942e-09 2.75433e-09 1.88164e-09 1.3934e-09 1.68659e-09 1.66991e-09 2.90315e-09 5.18155e-09 
1.65499e-09 9.35152e-10 1.16029e-09 1.72442e-09 1.4012e-09 8.76149e-10 -4.89056e-10 -1.47973e-09 -1.42826e-09 
-1.66125e-09 -7.93487e-10 -1.73561e-10 3.04388e-10 1.9159e-09 1.60809e-09 1.9247e-09 3.34311e-09 3.16415e-09 
4.14001e-09 2.93469e-09 2.01981e-09 2.59776e-09 2.95038e-09 1.61694e-09 8.85521e-10 1.09065e-09 1.17637e-09 
-2.06108e-10 -1.01491e-10 1.56101e-09 3.27611e-09 -4.77211e-10 7.44385e-10 1.65664e-09 7.99043e-10 -1.28444e-10 