# vtk DataFile Version 5.1
vtk output
ASCII
DATASET POLYDATA
POINTS 1479 float
0.630991 1.21901 0.5 0.628764 1.21824 0.503 0.626467 1.21744 0.506095 
0.624025 1.21659 0.509384 0.621362 1.21567 0.512971 0.618394 1.21464 0.516969 
0.615026 1.21347 0.521506 0.611151 1.21212 0.526726 0.603361 1.24664 0.5 
0.592482 1.25752 0.5 0.603742 1.24326 0.503 0.590258 1.25674 0.503 
0.604135 1.23977 0.506095 0.587964 1.25594 0.506095 0.604553 1.23606 0.509384 
0.585526 1.25509 0.509384 0.605008 1.23202 0.512971 0.582867 1.25416 0.512971 
0.605516 1.22751 0.516969 0.579903 1.25313 0.516969 0.606093 1.2224 0.521506 
0.57654 1.25195 0.521506 0.606756 1.21652 0.526726 0.607398 1.21082 0.531782 
0.606646 1.21056 0.532795 0.60137 1.20873 0.539904 0.595153 1.20657 0.548281 
0.587798 1.20401 0.55819 0.571282 1.27872 0.5 0.551319 1.29868 0.5 
0.57165 1.27535 0.503 0.549098 1.2979 0.503 0.57203 1.27188 0.506095 
0.546807 1.2971 0.506095 0.572433 1.26818 0.509384 0.544372 1.29624 0.509384 
0.572874 1.26416 0.512971 0.541717 1.29531 0.512971 0.573364 1.25967 0.516969 
0.573921 1.25457 0.521506 0.574293 1.25117 0.524537 0.574562 1.24871 0.526726 
0.572671 1.2506 0.526726 0.575308 1.2419 0.532795 0.568173 1.24903 0.532795 
0.576182 1.23391 0.539904 0.562904 1.24719 0.539904 0.577212 1.22451 0.548281 
0.556696 1.24502 0.548281 0.57843 1.21338 0.55819 0.549352 1.24246 0.55819 
0.579761 1.20122 0.569019 0.579072 1.20098 0.569947 0.568696 1.19738 0.583924 
0.556343 1.19309 0.600565 0.53998 1.31002 0.5 0.540335 1.30667 0.503 
0.5407 1.30321 0.506095 0.541088 1.29953 0.509384 0.541512 1.29552 0.512971 
0.54154 1.29525 0.51321 0.541985 1.29105 0.516969 0.538757 1.29427 0.516969 
0.542523 1.28597 0.521506 0.535398 1.2931 0.521506 0.543141 1.28013 0.526726 
0.531533 1.29174 0.526726 0.54386 1.27335 0.532795 0.52704 1.29017 0.532795 
0.544702 1.26539 0.539904 0.521776 1.28832 0.539904 0.545694 1.25602 0.548281 
0.515574 1.28614 0.548281 0.546868 1.24494 0.55819 0.54721 1.24171 0.56108 
0.548262 1.23179 0.569947 0.540638 1.23941 0.569947 0.549919 1.21616 0.583924 
0.53028 1.2358 0.583924 0.551893 1.19754 0.600565 0.552506 1.19176 0.605734 
0.541618 1.18798 0.6204 0.509546 1.34045 0.5 0.504413 1.34559 0.5 
0.509887 1.33711 0.503 0.502192 1.34481 0.503 0.510239 1.33367 0.506095 
0.499902 1.344 0.506095 0.510612 1.33 0.509384 0.497467 1.34315 0.509384 
0.51102 1.32601 0.512971 0.494812 1.34222 0.512971 0.511474 1.32156 0.516969 
0.491853 1.34118 0.516969 0.51199 1.3165 0.521506 0.488495 1.34 0.521506 
0.512583 1.31069 0.526726 0.484632 1.33864 0.526726 0.513272 1.30393 0.532795 
0.51408 1.29602 0.539904 0.515032 1.28669 0.548281 0.515104 1.28598 0.548916 
0.516161 1.27565 0.55819 0.508241 1.28357 0.55819 0.517501 1.26255 0.569947 
0.499539 1.28051 0.569947 0.519093 1.24698 0.583924 0.489195 1.27688 0.583924 
0.520584 1.23241 0.597006 0.52099 1.22844 0.600565 0.517946 1.23149 0.600565 
0.523254 1.20635 0.6204 0.503246 1.22635 0.6204 0.525701 1.18246 0.641839 
0.524055 1.18189 0.644057 0.5031 1.17461 0.672287 0.480055 1.36994 0.5 
0.480381 1.36662 0.503 0.480717 1.36319 0.506095 0.481075 1.35954 0.509384 
0.481464 1.35556 0.512971 0.481899 1.35113 0.516969 0.482392 1.3461 0.521506 
0.482959 1.34032 0.526726 0.483173 1.33813 0.528697 0.48362 1.33359 0.532795 
0.480141 1.33706 0.532795 0.484395 1.3257 0.539904 0.474882 1.33521 0.539904 
0.485308 1.31641 0.548281 0.468685 1.33303 0.548281 0.486388 1.30542 0.55819 
0.461355 1.33046 0.55819 0.48767 1.29238 0.569947 0.489194 1.27688 0.583924 
0.489194 1.27688 0.583926 0.491013 1.25842 0.600565 0.476881 1.27255 0.600565 
0.493182 1.23642 0.6204 0.494476 1.22329 0.632234 0.49577 1.21017 0.644057 
0.485717 1.22023 0.644057 0.498861 1.17885 0.672287 0.499406 1.17333 0.677264 
0.478084 1.16593 0.705987 0.451558 1.39844 0.5 0.448116 1.40188 0.5 
0.45187 1.39513 0.503 0.445894 1.40111 0.503 0.452192 1.39171 0.506095 
0.443602 1.4003 0.506095 0.452534 1.38808 0.509384 0.441166 1.39945 0.509384 
0.452907 1.38412 0.512971 0.438509 1.39852 0.512971 0.453322 1.37971 0.516969 
0.435548 1.39748 0.516969 0.453794 1.3747 0.521506 0.432187 1.39631 0.521506 
0.454337 1.36894 0.526726 0.428321 1.39495 0.526726 0.454968 1.36224 0.532795 
0.455708 1.35439 0.539904 0.456579 1.34514 0.548281 0.457609 1.3342 0.55819 
0.458071 1.3293 0.562629 0.458835 1.32122 0.569947 0.452658 1.3274 0.569947 
0.460293 1.30578 0.583924 0.442319 1.32376 0.583924 0.46203 1.28741 0.600565 
0.463865 1.26798 0.618155 0.4641 1.2655 0.6204 0.462204 1.2674 0.6204 
0.466575 1.23937 0.644057 0.444704 1.26124 0.644057 0.468943 1.21436 0.666697 
0.469529 1.20818 0.672287 0.464801 1.21291 0.672287 0.473059 1.17095 0.705987 
0.473681 1.1644 0.711919 0.424111 1.42589 0.5 0.424408 1.42259 0.503 
0.424714 1.41919 0.506095 0.42504 1.41558 0.509384 0.425395 1.41163 0.512971 
0.42579 1.40724 0.516969 0.426239 1.40225 0.521506 0.426756 1.39652 0.526726 
0.42694 1.39447 0.52859 0.427357 1.38985 0.532795 0.423826 1.39338 0.532795 
0.428063 1.38203 0.539904 0.418562 1.39153 0.539904 0.428895 1.37282 0.548281 
0.412359 1.38936 0.548281 0.429879 1.36193 0.55819 0.405021 1.38679 0.55819 
0.431046 1.34901 0.569947 0.432433 1.33364 0.583924 0.433603 1.32069 0.595707 
0.434087 1.31535 0.600565 0.430011 1.31942 0.600565 0.436062 1.29354 0.6204 
0.415348 1.31425 0.6204 0.438418 1.26752 0.644057 0.439164 1.25929 0.651546 
0.441235 1.23648 0.672287 0.423819 1.25389 0.672287 0.444034 1.20565 0.700316 
0.444601 1.19941 0.705987 0.439833 1.20418 0.705987 0.448577 1.15569 0.745733 
0.448211 1.15556 0.746226 0.39774 1.45226 0.5 0.37784 1.47216 0.5 
0.398023 1.44898 0.503 0.375612 1.47139 0.503 0.398314 1.44559 0.506095 
0.373312 1.47059 0.506095 0.398624 1.44199 0.509384 0.398962 1.43807 0.512971 
0.399339 1.43369 0.516969 0.399766 1.42873 0.521506 0.400258 1.42302 0.526726 
0.40083 1.41637 0.532795 0.4015 1.4086 0.539904 0.402289 1.39943 0.548281 
0.403223 1.38859 0.55819 0.403426 1.38623 0.560344 0.404334 1.37572 0.569947 
0.39632 1.38373 0.569947 0.405655 1.36042 0.583924 0.385977 1.3801 0.583924 
0.407228 1.34221 0.600565 0.409103 1.3205 0.6204 0.409811 1.3123 0.627889 
0.411344 1.2946 0.644057 0.397859 1.30808 0.644057 0.414022 1.26369 0.672287 
0.415135 1.25084 0.684025 0.417223 1.22679 0.705987 0.398892 1.24512 0.705987 
0.419795 1.19717 0.733035 0.421051 1.18272 0.746226 0.410025 1.19375 0.746226 
0.424139 1.14721 0.778651 0.412537 1.14318 0.794282 0.372468 1.47753 0.5 
0.372736 1.47426 0.503 0.373012 1.47089 0.506095 0.373044 1.4705 0.506456 
0.373306 1.46731 0.509384 0.370869 1.46975 0.509384 0.373627 1.4634 0.512971 
0.368205 1.46882 0.512971 0.373985 1.45905 0.516969 0.365235 1.4678 0.516969 
0.374391 1.4541 0.521506 0.361866 1.46663 0.521506 0.374859 1.44842 0.526726 
0.357989 1.46529 0.526726 0.375402 1.4418 0.532795 0.353481 1.46372 0.532795 
0.376039 1.43406 0.539904 0.376789 1.42493 0.548281 0.377676 1.41413 0.55819 
0.378728 1.40132 0.569947 0.37998 1.3861 0.583924 0.380627 1.37822 0.591153 
0.381472 1.36796 0.600565 0.373662 1.37577 0.600565 0.383254 1.34635 0.6204 
0.358984 1.37062 0.6204 0.385379 1.32056 0.644057 0.386731 1.30416 0.659109 
0.387918 1.2898 0.672287 0.376992 1.30072 0.672287 0.390953 1.25306 0.705987 
0.391815 1.24263 0.715555 0.394585 1.20919 0.746226 0.396263 1.18893 0.764807 
0.398929 1.15679 0.794282 0.374425 1.18129 0.794282 0.400407 1.13897 0.810623 
0.348312 1.50169 0.5 0.348566 1.49843 0.503 0.348828 1.49508 0.506095 
0.349106 1.49151 0.509384 0.34941 1.48762 0.512971 0.349748 1.48328 0.516969 
0.350132 1.47836 0.521506 0.350574 1.4727 0.526726 0.351087 1.46612 0.532795 
0.351332 1.46298 0.535688 0.35169 1.45841 0.539904 0.348201 1.46189 0.539904 
0.352401 1.44932 0.548281 0.34198 1.45974 0.548281 0.353242 1.43857 0.55819 
0.334622 1.45719 0.55819 0.35424 1.42581 0.569947 0.355426 1.41065 0.583924 
0.356839 1.3926 0.600565 0.358522 1.37108 0.6204 0.35857 1.37047 0.62096 
0.360536 1.34541 0.644057 0.341489 1.36445 0.644057 0.362939 1.31477 0.672287 
0.364391 1.29627 0.689339 0.365812 1.2782 0.705987 0.352092 1.29192 0.705987 
0.369236 1.23467 0.746094 0.369247 1.23453 0.746226 0.369138 1.23464 0.746226 
0.373361 1.18236 0.794282 0.373471 1.18096 0.795569 0.377415 1.13099 0.841595 
0.369926 1.12839 0.851682 0.32527 1.52473 0.5 0.32551 1.52149 0.503 
0.325758 1.51815 0.506095 0.326021 1.51459 0.509384 0.326309 1.51072 0.512971 
0.326629 1.5064 0.516969 0.326992 1.5015 0.521506 0.32741 1.49586 0.526726 
0.327895 1.48931 0.532795 0.328465 1.48163 0.539904 0.329135 1.47258 0.548281 
0.329928 1.46188 0.55819 0.330385 1.45572 0.563895 0.330871 1.44918 0.569947 
0.325894 1.45416 0.569947 0.331993 1.43408 0.583924 0.315522 1.45055 0.583924 
0.333329 1.41611 0.600565 0.334921 1.39468 0.6204 0.33682 1.36912 0.644057 
0.337277 1.36297 0.649753 0.339091 1.33862 0.672287 0.320616 1.3571 0.672287 
0.341805 1.30221 0.705987 0.342816 1.28864 0.718544 0.345051 1.25872 0.746226 
0.322364 1.28141 0.746226 0.347422 1.22699 0.775588 0.348935 1.20678 0.794282 
0.333604 1.22211 0.794282 0.351446 1.17324 0.825314 0.353583 1.14474 0.851682 
0.331912 1.16641 0.851682 0.355191 1.12328 0.871529 0.303336 1.54666 0.5 
0.287429 1.56257 0.5 0.303563 1.54344 0.503 0.285187 1.56181 0.503 
0.303797 1.54011 0.506095 0.304045 1.53657 0.509384 0.304316 1.53271 0.512971 
0.304619 1.52841 0.516969 0.304961 1.52353 0.521506 0.305356 1.51792 0.526726 
0.305814 1.51139 0.532795 0.306352 1.50374 0.539904 0.306985 1.49473 0.548281 
0.307733 1.48408 0.55819 0.308622 1.47143 0.569947 0.309678 1.4564 0.583924 
0.310218 1.44871 0.591072 0.310937 1.4385 0.600565 0.303178 1.44626 0.600565 
0.31244 1.41716 0.6204 0.314233 1.39171 0.644057 0.316371 1.36134 0.672287 
0.316766 1.35574 0.677494 0.318931 1.32508 0.705987 0.321989 1.28179 0.746226 
0.322024 1.28129 0.746686 0.32565 1.23007 0.794282 0.326393 1.21957 0.804037 
0.330031 1.16829 0.851682 0.330207 1.16581 0.853983 0.333757 1.11584 0.900403 
0.319026 1.11073 0.920246 0.282499 1.5675 0.5 0.282712 1.56429 0.503 
[...]
POINT_DATA 1479
FIELD FieldData 5
pressure 1 1479 float
0.178573 0.178573 0.178573 0.178573 0.178573 0.178573 0.178573 0.178573 0.178573 
0.178573 0.178573 0.178573 0.178573 0.178573 0.178573 0.178573 0.178573 0.178573 
0.178573 0.178573 0.178573 0.178573 0.178573 0.178573 0.178573 0.178573 0.178573 
0.178573 0.178573 0.178573 0.178573 0.178573 0.178573 0.178573 0.178573 0.178573 
0.178573 0.178573 0.178573 0.178573 0.178573 0.178573 0.178573 0.178573 0.178573 
0.178573 0.178573 0.178573 0.178573 0.178573 0.178573 0.178573 0.178573 0.178573 
0.178573 0.178573 0.178573 0.178573 0.178573 0.178573 0.178573 0.178573 0.178573 
0.178573 0.178573 0.178573 0.178573 0.178573 0.178573 0.178573 0.178573 0.178573 
0.178573 0.178573 0.178573 0.178573 0.178573 0.178573 0.178573 0.178573 0.178573 
0.178573 0.178573 0.178573 0.178573 0.178573 0.178573 0.178573 0.178573 0.178573 
0.178573 0.178573 0.178573 0.178573 0.178573 0.178573 0.178573 0.178573 0.178573 
0.178573 0.178573 0.178573 0.178573 0.178573 0.178573 0.178573 0.178573 0.178573 
0.178573 0.178573 0.178573 0.178573 0.178573 0.178573 0.178573 0.178573 0.178573 
0.178573 0.178573 0.178573 0.178573 0.178573 0.178573 0.178573 0.178573 0.178573 
0.178573 0.178573 0.178573 0.178573 0.178573 0.178573 0.178573 0.178573 0.178573 
0.178573 0.178573 0.178573 0.178573 0.178573 0.178573 0.178573 0.178573 0.178573 
0.178573 0.178573 0.178573 0.178573 0.178573 0.178573 0.178573 0.178573 0.178573 
0.178573 0.178573 0.178573 0.178573 0.178573 0.178573 0.178573 0.178573 0.178573 
0.178573 0.178573 0.178573 0.178573 0.178573 0.178573 0.178573 0.178573 0.178573 
0.178573 0.178573 0.178573 0.178573 0.178573 0.178573 0.178573 0.178573 0.178573 
0.178573 0.178573 0.178573 0.178573 0.178573 0.178573 0.178573 0.178573 0.178573 
0.178573 0.178573 0.178573 0.178573 0.178573 0.178573 0.178573 0.178573 0.178573 
0.178573 0.178573 0.178573 0.178573 0.178573 0.178573 0.178573 0.178573 0.178573 
0.178573 0.178573 0.178573 0.178573 0.178573 0.178573 0.178573 0.178573 0.178573 
0.178573 0.178573 0.178573 0.178573 0.178573 0.178573 0.178573 0.178573 0.178573 
0.178573 0.178573 0.178573 0.178573 0.178573 0.178573 0.178573 0.178573 0.178573 
0.178573 0.178573 0.178573 0.178573 0.178573 0.178573 0.178573 0.178573 0.178573 
0.178573 0.178573 0.178573 0.178573 0.178573 0.178573 0.178573 0.178573 0.178573 
0.178573 0.178573 0.178573 0.178573 0.178573 0.178573 0.178573 0.178573 0.178573 
0.178573 0.178573 0.178573 0.178573 0.178573 0.178573 0.178573 0.178573 0.178573 
0.178573 0.178573 0.178573 0.178573 0.178573 0.178573 0.178573 0.178573 0.178573 
0.178573 0.178573 0.178573 0.178573 0.178573 0.178573 0.178573 0.178573 0.178573 
0.178573 0.178573 0.178573 0.178573 0.178573 0.178573 0.178573 0.178573 0.178573 
0.178573 0.178573 0.178573 0.178573 0.178573 0.178573 0.178573 0.178573 0.178573 
0.178573 0.178573 0.178573 0.178573 0.178573 0.178573 0.178573 0.178573 0.178573 
0.178573 0.178573 0.178573 0.178573 0.178573 0.178573 0.178573 0.178573 0.178573 
0.178573 0.178573 0.178573 0.178573 0.178573 0.178573 0.178573 0.178573 0.178573 
0.178573 0.178573 0.178573 0.178573 0.178573 0.178573 0.178573 0.178573 0.178573 
0.178573 0.178573 0.178573 0.178573 0.178573 0.178573 0.178573 0.178573 0.178573 
0.178573 0.178573 0.178573 0.178573 0.178573 0.178573 0.178573 0.178573 0.178573 
0.178573 0.178573 0.178573 0.178573 0.178573 0.178573 0.178573 0.178573 0.178573 
0.178573 0.178573 0.178573 0.178573 0.178573 0.178573 0.178573 0.178573 0.178573 
0.178573 0.178573 0.178573 0.178573 0.178573 0.178573 0.178573 0.178573 0.178573 
0.178573 0.178573 0.178573 0.178573 0.178573 0.178573 0.178573 0.178573 0.178573 
0.178573 0.178573 0.178573 0.178573 0.178573 0.178573 0.178573 0.178573 0.178573 
0.178573 0.178573 0.178573 0.178573 0.178573 0.178573 0.178573 0.178573 0.178573 
0.178573 0.178573 0.178573 0.178573 0.178573 0.178573 0.178573 0.178573 0.178573 
0.178573 0.178573 0.178573 0.178573 0.178573 0.178573 0.178573 0.178573 0.178573 
0.178573 0.178573 0.178573 0.178573 0.178573 0.178573 0.178573 0.178573 0.178573 
0.178573 0.178573 0.178573 0.178573 0.178573 0.178573 0.178573 0.178573 0.178573 
0.178573 0.178573 0.178573 0.178573 0.178573 0.178573 0.178573 0.178573 0.178573 
0.178573 0.178573 0.178573 0.178573 0.178573 0.178573 0.178573 0.178573 0.178573 
0.178573 0.178573 0.178573 0.178573 0.178573 0.178573 0.178573 0.178573 0.178573 
0.178573 0.178573 0.178573 0.178573 0.178573 0.178573 0.178573 0.178573 0.178573 
0.178573 0.178573 0.178573 0.178573 0.178573 0.178573 0.178573 0.178573 0.178573 
0.178573 0.178573 0.178573 0.178573 0.178573 0.178573 0.178573 0.178573 0.178573 
0.178573 0.178573 0.178573 0.178573 0.178573 0.178573 0.178573 0.178573 0.178573 
0.178573 0.178573 0.178573 0.178573 0.178573 0.178573 0.178573 0.178573 0.178573 
0.178573 0.178573 0.178573 0.178573 0.178573 0.178573 0.178573 0.178573 0.178573 
0.178573 0.178573 0.178573 0.178573 0.178573 0.178573 0.178573 0.178573 0.178573 
0.178573 0.178573 0.178573 0.178573 0.178573 0.178573 0.178573 0.178573 0.178573 
0.178573 0.178573 0.178573 0.178573 0.178573 0.178573 0.178573 0.178573 0.178573 
0.178573 0.178573 0.178573 0.178573 0.178573 0.178573 0.178573 0.178573 0.178573 
0.178573 0.178573 0.178573 0.178573 0.178573 0.178573 0.178573 0.178573 0.178573 
0.178573 0.178573 0.178573 0.178573 0.178573 0.178573 0.178573 0.178573 0.178573 
0.178573 0.178573 0.178573 0.178573 0.178573 0.178573 0.178573 0.178573 0.178573 
0.178573 0.178573 0.178573 0.178573 0.178573 0.178573 0.178573 0.178573 0.178573 
0.178573 0.178573 0.178573 0.178573 0.178573 0.178573 0.178573 0.178573 0.178573 
0.178573 0.178573 0.178573 0.178573 0.178573 0.178573 0.178573 0.178573 0.178573 
0.178573 0.178573 0.178573 0.178573 0.178573 0.178573 0.178573 0.178573 0.178573 
0.178573 0.178573 0.178573 0.178573 0.178573 0.178573 0.178573 0.178573 0.178573 
0.178573 0.178573 0.178573 0.178573 0.178573 0.178573 0.178573 0.178573 0.178573 
0.178573 0.178573 0.178573 0.178573 0.178573 0.178573 0.178573 0.178573 0.178573 
0.178573 0.178573 0.178573 0.178573 0.178573 0.178573 0.178573 0.178573 0.178573 
0.178573 0.178573 0.178573 0.178573 0.178573 0.178573 0.178573 0.178573 0.178573 
0.178573 0.178573 0.178573 0.178573 0.178573 0.178573 0.178573 0.178573 0.178573 
0.178573 0.178573 0.178573 0.178573 0.178573 0.178573 0.178573 0.178573 0.178573 
0.178573 0.178573 0.178573 0.178573 0.178573 0.178573 0.178573 0.178573 0.178573 
0.178573 0.178573 0.178573 0.178573 0.178573 0.178573 0.178573 0.178573 0.178573 
0.178573 0.178573 0.178573 0.178573 0.178573 0.178573 0.178573 0.178573 0.178573 
0.178573 0.178573 0.178573 0.178573 0.178573 0.178573 0.178573 0.178573 0.178573 
0.178573 0.178573 0.178573 0.178573 0.178573 0.178573 0.178573 0.178573 0.178573 
0.178573 0.178573 0.178573 0.178573 0.178573 0.178573 0.178573 0.178573 0.178573 
0.178573 0.178573 0.178573 0.178573 0.178573 0.178573 0.178573 0.178573 0.178573 
0.178573 0.178573 0.178573 0.178573 0.178573 0.178573 0.178573 0.178573 0.178573 
0.178573 0.178573 0.178573 0.178573 0.178573 0.178573 0.178573 0.178573 0.178573 
0.178573 0.178573 0.178573 0.178573 0.178573 0.178573 0.178573 0.178573 0.178573 
0.178573 0.178573 0.178573 0.178573 0.178573 0.178573 0.178573 0.178573 0.178573 
0.178573 0.178573 0.178573 0.178573 0.178573 0.178573 0.178573 0.178573 0.178573 
0.178573 0.178573 0.178573 0.178573 0.178573 0.178573 0.178573 0.178573 0.178573 
0.178573 0.178573 0.178573 0.178573 0.178573 0.178573 0.178573 0.178573 0.178573 
0.178573 0.178573 0.178573 0.178573 0.178573 0.178573 0.178573 0.178573 0.178573 
0.178573 0.178573 0.178573 0.178573 0.178573 0.178573 0.178573 0.178573 0.178573 
0.178573 0.178573 0.178573 0.178573 0.178573 0.178573 0.178573 0.178573 0.178573 
0.178573 0.178573 0.178573 0.178573 0.178573 0.178573 0.178573 0.178573 0.178573 
0.178573 0.178573 0.178573 0.178573 0.178573 0.178573 0.178573 0.178573 0.178573 
0.178573 0.178573 0.178573 0.178573 0.178573 0.178573 0.178573 0.178573 0.178573 
0.178573 0.178573 0.178573 0.178573 0.178573 0.178573 0.178573 0.178573 0.178573 
0.178573 0.178573 0.178573 0.178573 0.178573 0.178573 0.178573 0.178573 0.178573 
0.178573 0.178573 0.178573 0.178573 0.178573 0.178573 0.178573 0.178573 0.178573 
0.178573 0.178573 0.178573 0.178573 0.178573 0.178573 0.178573 0.178573 0.178573 
0.178573 0.178573 0.178573 0.178573 0.178573 0.178573 0.178573 0.178573 0.178573 
0.178573 0.178573 0.178573 0.178573 0.178573 0.178573 0.178573 0.178573 0.178573 
0.178573 0.178573 0.178573 0.178573 0.178573 0.178573 0.178573 0.178573 0.178573 
0.178573 0.178573 0.178573 0.178573 0.178573 0.178573 0.178573 0.178573 0.178573 
0.178573 0.178573 0.178573 0.178573 0.178573 0.178573 0.178573 0.178573 0.178573 
0.178573 0.178573 0.178573 0.178573 0.178573 0.178573 0.178573 0.178573 0.178573 
0.178573 0.178573 0.178573 0.178573 0.178573 0.178573 0.178573 0.178573 0.178573 
0.178573 0.178573 0.178573 0.178573 0.178573 0.178573 0.178573 0.178573 0.178573 
0.178573 0.178573 0.178573 0.178573 0.178573 0.178573 0.178573 0.178573 0.178573 
0.178573 0.178573 0.178573 0.178573 0.178573 0.178573 0.178573 0.178573 0.178573 
0.178573 0.178573 0.178573 0.178573 0.178573 0.178573 0.178573 0.178573 0.178573 
0.178573 0.178573 0.178573 0.178573 0.178573 0.178573 0.178573 0.178573 0.178573 
0.178573 0.178573 0.178573 0.178573 0.178573 0.178573 0.178573 0.178573 0.178573 
0.178573 0.178573 0.178573 0.178573 0.178573 0.178573 0.178573 0.178573 0.178573 
0.178573 0.178573 0.178573 0.178573 0.178573 0.178573 0.178573 0.178573 0.178573 
0.178573 0.178573 0.178573 0.178573 0.178573 0.178573 0.178573 0.178573 0.178573 
0.178573 0.178573 0.178573 0.178573 0.178573 0.178573 0.178573 0.178573 0.178573 
0.178573 0.178573 0.178573 0.178573 0.178573 0.178573 0.178573 0.178573 0.178573 
0.178573 0.178573 0.178573 0.178573 0.178573 0.178573 0.178573 0.178573 0.178573 
0.178573 0.178573 0.178573 0.178573 0.178573 0.178573 0.178573 0.178573 0.178573 
0.178573 0.178573 0.178573 0.178573 0.178573 0.178573 0.178573 0.178573 0.178573 
0.178573 0.178573 0.178573 0.178573 0.178573 0.178573 0.178573 0.178573 0.178573 
0.178573 0.178573 0.178573 0.178573 0.178573 0.178573 0.178573 0.178573 0.178573 
0.178573 0.178573 0.178573 0.178573 0.178573 0.178573 0.178573 0.178573 0.178573 
0.178573 0.178573 0.178573 0.178573 0.178573 0.178573 0.178573 0.178573 0.178573 
0.178573 0.178573 0.178573 0.178573 0.178573 0.178573 0.178573 0.178573 0.178573 
0.178573 0.178573 0.178573 0.178573 0.178573 0.178573 0.178573 0.178573 0.178573 
0.178573 0.178573 0.178573 0.178573 0.178573 0.178573 0.178573 0.178573 0.178573 
0.178573 0.178573 0.178573 0.178573 0.178573 0.178573 0.178573 0.178573 0.178573 
0.178573 0.178573 0.178573 0.178573 0.178573 0.178573 0.178573 0.178573 0.178573 
0.178573 0.178573 0.178573 0.178573 0.178573 0.178573 0.178573 0.178573 0.178573 
0.178573 0.178573 0.178573 0.178573 0.178573 0.178573 0.178573 0.178573 0.178573 
0.178573 0.178573 0.178573 0.178573 0.178573 0.178573 0.178573 0.178573 0.178573 
0.178573 0.178573 0.178573 0.178573 0.178573 0.178573 0.178573 0.178573 0.178573 
0.178573 0.178573 0.178573 0.178573 0.178573 0.178573 0.178573 0.178573 0.178573 
0.178573 0.178573 0.178573 0.178573 0.178573 0.178573 0.178573 0.178573 0.178573 
0.178573 0.178573 0.178573 0.178573 0.178573 0.178573 0.178573 0.178573 0.178573 
0.178573 0.178573 0.178573 0.178573 0.178573 0.178573 0.178573 0.178573 0.178573 
0.178573 0.178573 0.178573 0.178573 0.178573 0.178573 0.178573 0.178573 0.178573 
0.178573 0.178573 0.178573 0.178573 0.178573 0.178573 0.178573 0.178573 0.178573 
0.178573 0.178573 0.178573 0.178573 0.178573 0.178573 0.178573 0.178573 0.178573 
0.178573 0.178573 0.178573 0.178573 0.178573 0.178573 0.178573 0.178573 0.178573 
0.178573 0.178573 0.178573 0.178573 0.178573 0.178573 0.178573 0.178573 0.178573 
0.178573 0.178573 0.178573 0.178573 0.178573 0.178573 0.178573 0.178573 0.178573 
0.178573 0.178573 0.178573 0.178573 0.178573 0.178573 0.178573 0.178573 0.178573 
0.178573 0.178573 0.178573 0.178573 0.178573 0.178573 0.178573 0.178573 0.178573 
0.178573 0.178573 0.178573 0.178573 0.178573 0.178573 0.178573 0.178573 0.178573 
0.178573 0.178573 0.178573 0.178573 0.178573 0.178573 0.178573 0.178573 0.178573 
0.178573 0.178573 0.178573 0.178573 0.178573 0.178573 0.178573 0.178573 0.178573 
0.178573 0.178573 0.178573 0.178573 0.178573 0.178573 0.178573 0.178573 0.178573 
0.178573 0.178573 0.178573 0.178573 0.178573 0.178573 0.178573 0.178573 0.178573 
0.178573 0.178573 0.178573 0.178573 0.178573 0.178573 0.178573 0.178573 0.178573 
0.178573 0.178573 0.178573 0.178573 0.178573 0.178573 0.178573 0.178573 0.178573 
0.178573 0.178573 0.178573 0.178573 0.178573 0.178573 0.178573 0.178573 0.178573 
0.178573 0.178573 0.178573 0.178573 0.178573 0.178573 0.178573 0.178573 0.178573 
0.178573 0.178573 0.178573 0.178573 0.178573 0.178573 0.178573 0.178573 0.178573 
0.178573 0.178573 0.178573 0.178573 0.178573 0.178573 0.178573 0.178573 0.178573 
0.178573 0.178573 0.178573 0.178573 0.178573 0.178573 0.178573 0.178573 0.178573 
0.178573 0.178573 0.178573 0.178573 0.178573 0.178573 0.178573 0.178573 0.178573 
0.178573 0.178573 0.178573 0.178573 0.178573 0.178573 0.178573 0.178573 0.178573 
0.178573 0.178573 0.178573 0.178573 0.178573 0.178573 0.178573 0.178573 0.178573 
0.178573 0.178573 0.178573 0.178573 0.178573 0.178573 0.178573 0.178573 0.178573 
0.178573 0.178573 0.178573 0.178573 0.178573 0.178573 0.178573 0.178573 0.178573 
0.178573 0.178573 0.178573 
velocity_u 1 1479 float
1 1 1 1 1 1 1 1 1 
1 1 1 1 1 1 1 1 1 
1 1 1 1 1 1 1 1 1 
1 1 1 1 1 1 1 1 1 
1 1 1 1 1 1 1 1 1 
1 1 1 1 1 1 1 1 1 
1 1 1 1 1 1 1 1 1 
1 1 1 1 1 1 1 1 1 
1 1 1 1 1 1 1 1 1 
1 1 1 1 1 1 1 1 1 
1 1 1 1 1 1 1 1 1 
1 1 1 1 1 1 1 1 1 
1 1 1 1 1 1 1 1 1 
1 1 1 1 1 1 1 1 1 
1 1 1 1 1 1 1 1 1 
1 1 1 1 1 1 1 1 1 
1 1 1 1 1 1 1 1 1 
1 1 1 1 1 1 1 1 1 
1 1 1 1 1 1 1 1 1 
1 1 1 1 1 1 1 1 1 
1 1 1 1 1 1 1 1 1 
1 1 1 1 1 1 1 1 1 
1 1 1 1 1 1 1 1 1 
1 1 1 1 1 1 1 1 1 
1 1 1 1 1 1 1 1 1 
1 1 1 1 1 1 1 1 1 
1 1 1 1 1 1 1 1 1 
1 1 1 1 1 1 1 1 1 
1 1 1 1 1 1 1 1 1 
1 1 1 1 1 1 1 1 1 
1 1 1 1 1 1 1 1 1 
1 1 1 1 1 1 1 1 1 
1 1 1 1 1 1 1 1 1 
1 1 1 1 1 1 1 1 1 
1 1 1 1 1 1 1 1 1 
1 1 1 1 1 1 1 1 1 
1 1 1 1 1 1 1 1 1 
1 1 1 1 1 1 1 1 1 
1 1 1 1 1 1 1 1 1 
1 1 1 1 1 1 1 1 1 
1 1 1 1 1 1 1 1 1 
1 1 1 1 1 1 1 1 1 
1 1 1 1 1 1 1 1 1 
1 1 1 1 1 1 1 1 1 
1 1 1 1 1 1 1 1 1 
1 1 1 1 1 1 1 1 1 
1 1 1 1 1 1 1 1 1 
1 1 1 1 1 1 1 1 1 
1 1 1 1 1 1 1 1 1 
1 1 1 1 1 1 1 1 1 
1 1 1 1 1 1 1 1 1 
1 1 1 1 1 1 1 1 1 
1 1 1 1 1 1 1 1 1 
1 1 1 1 1 1 1 1 1 
1 1 1 1 1 1 1 1 1 
1 1 1 1 1 1 1 1 1 
1 1 1 1 1 1 1 1 1 
1 1 1 1 1 1 1 1 1 
1 1 1 1 1 1 1 1 1 
1 1 1 1 1 1 1 1 1 
1 1 1 1 1 1 1 1 1 
1 1 1 1 1 1 1 1 1 
1 1 1 1 1 1 1 1 1 
1 1 1 1 1 1 1 1 1 
1 1 1 1 1 1 1 1 1 
1 1 1 1 1 1 1 1 1 
1 1 1 1 1 1 1 1 1 
1 1 1 1 1 1 1 1 1 
1 1 1 1 1 1 1 1 1 
1 1 1 1 1 1 1 1 1 
1 1 1 1 1 1 1 1 1 
1 1 1 1 1 1 1 1 1 
1 1 1 1 1 1 1 1 1 
1 1 1 1 1 1 1 1 1 
1 1 1 1 1 1 1 1 1 
1 1 1 1 1 1 1 1 1 
1 1 1 1 1 1 1 1 1 
1 1 1 1 1 1 1 1 1 
1 1 1 1 1 1 1 1 1 
1 1 1 1 1 1 1 1 1 
1 1 1 1 1 1 1 1 1 
1 1 1 1 1 1 1 1 1 
1 1 1 1 1 1 1 1 1 
1 1 1 1 1 1 1 1 1 
1 1 1 1 1 1 1 1 1 
1 1 1 1 1 1 1 1 1 
1 1 1 1 1 1 1 1 1 
1 1 1 1 1 1 1 1 1 
1 1 1 1 1 1 1 1 1 
1 1 1 1 1 1 1 1 1 
1 1 1 1 1 1 1 1 1 
1 1 1 1 1 1 1 1 1 
1 1 1 1 1 1 1 1 1 
1 1 1 1 1 1 1 1 1 
1 1 1 1 1 1 1 1 1 
1 1 1 1 1 1 1 1 1 
1 1 1 1 1 1 1 1 1 
1 1 1 1 1 1 1 1 1 
1 1 1 1 1 1 1 1 1 
1 1 1 1 1 1 1 1 1 
1 1 1 1 1 1 1 1 1 
1 1 1 1 1 1 1 1 1 
1 1 1 1 1 1 1 1 1 
1 1 1 1 1 1 1 1 1 
1 1 1 1 1 1 1 1 1 
1 1 1 1 1 1 1 1 1 
1 1 1 1 1 1 1 1 1 
1 1 1 1 1 1 1 1 1 
1 1 1 1 1 1 1 1 1 
1 1 1 1 1 1 1 1 1 
1 1 1 1 1 1 1 1 1 
1 1 1 1 1 1 1 1 1 
1 1 1 1 1 1 1 1 1 
1 1 1 1 1 1 1 1 1 
1 1 1 1 1 1 1 1 1 
1 1 1 1 1 1 1 1 1 
1 1 1 1 1 1 1 1 1 
1 1 1 1 1 1 1 1 1 
1 1 1 1 1 1 1 1 1 
1 1 1 1 1 1 1 1 1 
1 1 1 1 1 1 1 1 1 
1 1 1 1 1 1 1 1 1 
1 1 1 1 1 1 1 1 1 
1 1 1 1 1 1 1 1 1 
1 1 1 1 1 1 1 1 1 
1 1 1 1 1 1 1 1 1 
1 1 1 1 1 1 1 1 1 
1 1 1 1 1 1 1 1 1 
1 1 1 1 1 1 1 1 1 
1 1 1 1 1 1 1 1 1 
1 1 1 1 1 1 1 1 1 
1 1 1 1 1 1 1 1 1 
1 1 1 1 1 1 1 1 1 
1 1 1 1 1 1 1 1 1 
1 1 1 1 1 1 1 1 1 
1 1 1 1 1 1 1 1 1 
1 1 1 1 1 1 1 1 1 
1 1 1 1 1 1 1 1 1 
1 1 1 1 1 1 1 1 1 
1 1 1 1 1 1 1 1 1 
1 1 1 1 1 1 1 1 1 
1 1 1 1 1 1 1 1 1 
1 1 1 1 1 1 1 1 1 
1 1 1 1 1 1 1 1 1 
1 1 1 1 1 1 1 1 1 
1 1 1 1 1 1 1 1 1 
1 1 1 1 1 1 1 1 1 
1 1 1 1 1 1 1 1 1 
1 1 1 1 1 1 1 1 1 
1 1 1 1 1 1 1 1 1 
1 1 1 1 1 1 1 1 1 
1 1 1 1 1 1 1 1 1 
1 1 1 1 1 1 1 1 1 
1 1 1 1 1 1 1 1 1 
1 1 1 1 1 1 1 1 1 
1 1 1 1 1 1 1 1 1 
1 1 1 1 1 1 1 1 1 
1 1 1 1 1 1 1 1 1 
1 1 1 1 1 1 1 1 1 
1 1 1 1 1 1 1 1 1 
1 1 1 1 1 1 1 1 1 
1 1 1 1 1 1 1 1 1 
1 1 1 1 1 1 1 1 1 
1 1 1 1 1 1 1 1 1 
1 1 1 
velocity_v 1 1479 float
-5.43241e-09 -8.77269e-09 -2.36587e-10 -5.13857e-09 8.33142e-09 1.10528e-09 -8.09805e-10 1.01589e-08 -6.72264e-09 
-6.95928e-09 -1.25112e-08 -1.13365e-08 -1.04915e-08 -1.01284e-08 -7.66252e-09 -5.12925e-09 7.5081e-09 4.74337e-09 
-5.03035e-10 -1.64765e-09 1.99621e-09 -2.03994e-09 1.00135e-08 5.6895e-09 4.53102e-09 -1.67825e-09 -4.06693e-09 
2.55003e-08 -2.62461e-08 -2.24928e-08 -2.30407e-08 -2.49884e-08 -1.79841e-08 -2.7263e-08 -1.00318e-08 -8.2622e-09 
-2.75856e-09 -9.80657e-09 -4.3776e-09 -2.98037e-09 2.40515e-09 5.83035e-09 6.07682e-09 2.04651e-09 1.59577e-09 
1.9643e-08 3.25879e-08 6.8087e-09 3.25912e-08 2.51664e-08 3.20984e-08 1.90496e-09 6.28743e-11 3.5484e-08 
3.34732e-08 -1.77206e-08 -1.94654e-08 -2.2529e-08 -6.22484e-09 -9.58369e-09 -9.13235e-09 -1.32846e-09 -8.31425e-10 
3.03306e-09 1.69535e-09 1.49247e-08 1.83818e-08 1.076e-08 9.46742e-09 2.26797e-08 1.29362e-09 2.73553e-08 
1.98016e-08 3.01311e-08 2.65554e-08 7.36123e-09 9.21648e-09 3.50223e-08 2.51009e-08 3.0833e-08 2.88596e-08 
2.04492e-08 -1.878e-08 -1.8431e-08 -2.01727e-08 -1.78309e-08 -9.41217e-09 -6.84891e-09 -2.9952e-09 -3.5336e-10 
-3.32433e-09 -2.87026e-09 -3.92911e-09 -3.82919e-09 4.01274e-09 2.37407e-09 1.7505e-08 -1.29735e-09 9.63844e-09 
3.8556e-09 1.99944e-08 2.00688e-08 1.85668e-08 1.69118e-08 1.94289e-08 1.40498e-08 1.41261e-08 3.6492e-09 
1.62857e-08 1.60053e-08 1.64963e-08 9.28295e-09 -1.10292e-09 4.64182e-09 3.42794e-09 6.62548e-09 -1.74926e-08 
-1.59973e-08 -1.01454e-08 -5.63707e-09 -7.83221e-09 -2.66344e-09 3.17188e-10 -1.79126e-09 -7.66875e-10 1.83086e-11 
-6.25409e-10 -6.74857e-09 -6.34e-09 8.44455e-09 5.70648e-09 3.6446e-09 -3.38674e-09 9.35124e-09 3.64826e-09 
3.64678e-09 -3.05436e-09 -4.10726e-09 -3.49506e-09 -2.17092e-09 -5.01435e-10 -1.681e-08 6.35581e-10 4.75285e-09 
-1.83943e-08 -8.45688e-09 -8.54731e-09 -4.4512e-09 -4.35099e-09 -6.15252e-09 -4.56955e-09 2.33824e-10 2.2105e-09 
-4.21366e-09 -2.36131e-10 -3.37849e-10 2.13248e-09 -3.01775e-09 3.6593e-09 -5.93412e-09 6.54307e-09 -3.00856e-09 
-6.43442e-09 2.59108e-09 -4.16567e-09 8.31839e-10 6.31409e-09 8.75203e-09 -1.20932e-08 -1.65107e-08 1.71494e-10 
-4.12511e-09 -6.07699e-09 -8.03134e-09 -2.4464e-08 -7.32755e-09 -3.88095e-08 -3.14597e-08 -3.64868e-08 -1.90408e-08 
-1.80114e-08 -1.02304e-08 -5.47876e-09 -4.721e-09 2.22717e-10 -9.20857e-10 -3.36515e-10 3.47285e-09 6.40513e-09 
3.92935e-09 -2.24701e-09 -2.612e-09 1.49333e-09 5.27665e-09 1.75569e-09 6.97892e-10 -4.43032e-09 -1.25858e-08 
6.34708e-09 -1.27742e-08 -1.61319e-09 1.96108e-09 -1.91426e-09 -2.62692e-08 -6.31173e-09 -9.00657e-09 -7.35613e-09 
-1.51706e-08 4.16409e-09 -2.48559e-08 -2.36964e-08 -2.65195e-08 1.15314e-08 1.1151e-08 -8.98333e-09 -4.33258e-09 
-5.35758e-09 8.02226e-09 -6.20594e-09 3.1511e-09 -6.69592e-09 -7.23998e-09 -2.67153e-09 -4.16326e-09 -1.30509e-09 
-2.03724e-09 6.42876e-09 1.91423e-09 -1.23615e-08 -9.0253e-09 4.24587e-09 6.38467e-09 -1.75383e-08 -1.31946e-08 
-2.3584e-08 -5.72845e-09 -6.2107e-10 7.77534e-10 2.6168e-09 1.02321e-08 1.31918e-08 -5.94765e-09 2.20176e-08 
-1.63075e-08 -1.57061e-08 -7.10201e-09 -6.84421e-09 7.68316e-09 -3.74299e-09 8.30286e-09 3.16697e-09 2.94082e-09 
-1.52064e-10 1.02589e-09 3.62012e-09 6.78171e-09 3.2043e-09 2.76001e-09 2.75927e-09 8.73727e-09 4.57611e-10 