# vtk DataFile Version 5.1
vtk output
ASCII
DATASET STRUCTURED_GRID
DIMENSIONS 24 30 13
POINTS 9360 float
5.62481 0.666943 0.5 5.62482 0.705828 0.5 5.62482 0.743636 0.5 
5.62483 0.779902 0.5 5.62483 0.814241 0.5 5.62484 0.84636 0.5 
5.62484 0.876062 0.5 5.62484 0.903241 0.5 5.62485 0.927875 0.5 
5.62485 0.950009 0.5 5.62485 0.969744 0.5 5.62485 0.987221 0.5 
5.62485 1.0026 0.5 5.62486 1.01607 0.5 5.62486 1.02781 0.5 
5.62486 1.03799 0.5 5.62486 1.04681 0.5 5.62486 1.05441 0.5 
5.62486 1.06095 0.5 5.62486 1.06656 0.5 5.62487 1.07137 0.5 
5.62487 1.07548 0.5 5.62487 1.079 0.5 5.62487 1.082 0.5 
5.66519 0.664271 0.5 5.66518 0.703484 0.5 5.66518 0.741606 0.5 
5.66517 0.778167 0.5 5.66517 0.812778 0.5 5.66516 0.845142 0.5 
5.66516 0.875061 0.5 5.66516 0.90243 0.5 5.66515 0.927227 0.5 
5.66515 0.949498 0.5 5.66515 0.969348 0.5 5.66515 0.986918 0.5 
5.66514 1.00238 0.5 5.66514 1.0159 0.5 5.66514 1.02769 0.5 
5.66514 1.03791 0.5 5.66514 1.04675 0.5 5.66514 1.05437 0.5 
5.66514 1.06093 0.5 5.66514 1.06655 0.5 5.66513 1.07136 0.5 
5.66513 1.07548 0.5 5.66513 1.079 0.5 5.66513 1.082 0.5 
5.70556 0.661599 0.5 5.70555 0.70114 0.5 5.70553 0.739576 0.5 
5.70552 0.776432 0.5 5.7055 0.811315 0.5 5.70549 0.843924 0.5 
5.70548 0.874061 0.5 5.70547 0.90162 0.5 5.70546 0.926579 0.5 
5.70545 0.948988 0.5 5.70544 0.968952 0.5 5.70544 0.986615 0.5 
5.70543 1.00215 0.5 5.70543 1.01574 0.5 5.70542 1.02757 0.5 
5.70542 1.03783 0.5 5.70542 1.04669 0.5 5.70541 1.05434 0.5 
5.70541 1.0609 0.5 5.70541 1.06654 0.5 5.70541 1.07136 0.5 
5.70541 1.07548 0.5 5.7054 1.079 0.5 5.7054 1.082 0.5 
5.74593 0.658928 0.5 5.74591 0.698796 0.5 5.74588 0.737547 0.5 
5.74586 0.774698 0.5 5.74584 0.809852 0.5 5.74582 0.842707 0.5 
5.7458 0.873061 0.5 5.74578 0.900809 0.5 5.74577 0.925931 0.5 
5.74575 0.948477 0.5 5.74574 0.968556 0.5 5.74573 0.986312 0.5 
5.74572 1.00192 0.5 5.74571 1.01557 0.5 5.7457 1.02745 0.5 
5.7457 1.03774 0.5 5.74569 1.04664 0.5 5.74569 1.0543 0.5 
5.74568 1.06088 0.5 5.74568 1.06652 0.5 5.74568 1.07135 0.5 
5.74567 1.07548 0.5 5.74567 1.079 0.5 5.74567 1.082 0.5 
5.7863 0.656257 0.5 5.78626 0.696453 0.5 5.78623 0.735517 0.5 
5.7862 0.772963 0.5 5.78617 0.808389 0.5 5.78614 0.841489 0.5 
5.78612 0.872061 0.5 5.78609 0.899999 0.5 5.78607 0.925284 0.5 
5.78605 0.947967 0.5 5.78603 0.968159 0.5 5.78602 0.98601 0.5 
5.786 1.00169 0.5 5.78599 1.0154 0.5 5.78598 1.02733 0.5 
5.78597 1.03766 0.5 5.78597 1.04658 0.5 5.78596 1.05426 0.5 
5.78595 1.06086 0.5 5.78595 1.06651 0.5 5.78594 1.07135 0.5 
5.78594 1.07548 0.5 5.78594 1.079 0.5 5.78593 1.082 0.5 
5.82666 0.653586 0.5 5.82662 0.69411 0.5 5.82658 0.733489 0.5 
5.82653 0.77123 0.5 5.82649 0.806927 0.5 5.82646 0.840272 0.5 
5.82643 0.871062 0.5 5.8264 0.89919 0.5 5.82637 0.924636 0.5 
5.82634 0.947457 0.5 5.82632 0.967763 0.5 5.8263 0.985707 0.5 
5.82628 1.00147 0.5 5.82627 1.01523 0.5 5.82626 1.02721 0.5 
5.82625 1.03758 0.5 5.82624 1.04653 0.5 5.82623 1.05423 0.5 
5.82622 1.06084 0.5 5.82621 1.0665 0.5 5.82621 1.07134 0.5 
5.8262 1.07548 0.5 5.8262 1.079 0.5 5.8262 1.082 0.5 
5.86701 0.650917 0.5 5.86696 0.691768 0.5 5.86691 0.73146 0.5 
5.86686 0.769496 0.5 5.86682 0.805465 0.5 5.86677 0.839056 0.5 
5.86673 0.870063 0.5 5.8667 0.89838 0.5 5.86666 0.923989 0.5 
5.86663 0.946947 0.5 5.86661 0.967368 0.5 5.86658 0.985405 0.5 
5.86656 1.00124 0.5 5.86654 1.01507 0.5 5.86653 1.02709 0.5 
5.86652 1.03749 0.5 5.8665 1.04647 0.5 5.86649 1.05419 0.5 
5.86648 1.06082 0.5 5.86648 1.06649 0.5 5.86647 1.07134 0.5 
5.86647 1.07547 0.5 5.86646 1.079 0.5 5.86646 1.082 0.5 
5.90736 0.648248 0.5 5.9073 0.689427 0.5 5.90724 0.729433 0.5 
5.90719 0.767764 0.5 5.90713 0.804003 0.5 5.90708 0.837839 0.5 
5.90703 0.869064 0.5 5.90699 0.89757 0.5 5.90695 0.923342 0.5 
5.90692 0.946438 0.5 5.90689 0.966972 0.5 5.90686 0.985103 0.5 
5.90684 1.00101 0.5 5.90682 1.0149 0.5 5.9068 1.02697 0.5 
5.90678 1.03741 0.5 5.90677 1.04641 0.5 5.90675 1.05416 0.5 
5.90674 1.0608 0.5 5.90674 1.06648 0.5 5.90673 1.07133 0.5 
5.90672 1.07547 0.5 5.90672 1.079 0.5 5.90671 1.082 0.5 
5.9477 0.64558 0.5 5.94763 0.687086 0.5 5.94756 0.727406 0.5 
5.9475 0.766032 0.5 5.94744 0.802543 0.5 5.94738 0.836624 0.5 
5.94733 0.868066 0.5 5.94728 0.896762 0.5 5.94724 0.922696 0.5 
5.9472 0.945928 0.5 5.94716 0.966577 0.5 5.94713 0.984801 0.5 
5.9471 1.00079 0.5 5.94708 1.01473 0.5 5.94706 1.02685 0.5 
5.94704 1.03733 0.5 5.94702 1.04636 0.5 5.94701 1.05412 0.5 
5.947 1.06077 0.5 5.94699 1.06647 0.5 5.94698 1.07133 0.5 
5.94697 1.07547 0.5 5.94697 1.079 0.5 5.94696 1.082 0.5 
5.98803 0.642914 0.5 5.98795 0.684747 0.5 5.98787 0.725381 0.5 
5.9878 0.764301 0.5 5.98773 0.801083 0.5 5.98767 0.835409 0.5 
5.98761 0.867068 0.5 5.98756 0.895953 0.5 5.98751 0.92205 0.5 
5.98747 0.945419 0.5 5.98743 0.966181 0.5 5.98739 0.984499 0.5 
5.98736 1.00056 0.5 5.98734 1.01457 0.5 5.98731 1.02673 0.5 
5.98729 1.03724 0.5 5.98728 1.0463 0.5 5.98726 1.05408 0.5 
5.98725 1.06075 0.5 5.98724 1.06646 0.5 5.98723 1.07132 0.5 
5.98722 1.07547 0.5 5.98722 1.079 0.5 5.98721 1.082 0.5 
6.02834 0.640248 0.5 6.02826 0.682409 0.5 6.02817 0.723356 0.5 
6.0281 0.76257 0.5 6.02802 0.799624 0.5 6.02795 0.834194 0.5 
6.02789 0.866071 0.5 6.02783 0.895145 0.5 6.02778 0.921404 0.5 
6.02773 0.944911 0.5 6.02769 0.965787 0.5 6.02765 0.984197 0.5 
6.02762 1.00033 0.5 6.02759 1.0144 0.5 6.02756 1.02661 0.5 
6.02754 1.03716 0.5 6.02752 1.04625 0.5 6.02751 1.05405 0.5 
6.02749 1.06073 0.5 6.02748 1.06644 0.5 6.02747 1.07132 0.5 
6.02746 1.07547 0.5 6.02746 1.079 0.5 6.02745 1.082 0.5 
6.06864 0.637585 0.5 6.06855 0.680072 0.5 6.06846 0.721333 0.5 
6.06838 0.760841 0.5 6.0683 0.798166 0.5 6.06822 0.832981 0.5 
6.06815 0.865074 0.5 6.06809 0.894338 0.5 6.06803 0.920759 0.5 
6.06798 0.944402 0.5 6.06794 0.965393 0.5 6.0679 0.983896 0.5 
6.06786 1.00011 0.5 6.06783 1.01424 0.5 6.06781 1.02649 0.5 
6.06778 1.03708 0.5 6.06776 1.04619 0.5 6.06775 1.05401 0.5 
6.06773 1.06071 0.5 6.06772 1.06643 0.5 6.06771 1.07131 0.5 
6.0677 1.07547 0.5 6.06769 1.079 0.5 6.06768 1.082 0.5 
6.10892 0.634923 0.5 6.10883 0.677737 0.5 6.10873 0.719311 0.5 
6.10864 0.759113 0.5 6.10856 0.796709 0.5 6.10848 0.831768 0.5 
6.10841 0.864079 0.5 6.10834 0.893532 0.5 6.10828 0.920115 0.5 
6.10823 0.943895 0.5 6.10818 0.964998 0.5 6.10814 0.983596 0.5 
6.1081 0.999883 0.5 6.10807 1.01407 0.5 6.10804 1.02637 0.5 
6.10802 1.03699 0.5 6.10799 1.04613 0.5 6.10797 1.05398 0.5 
6.10796 1.06069 0.5 6.10795 1.06642 0.5 6.10794 1.07131 0.5 
6.10792 1.07546 0.5 6.10792 1.079 0.5 6.10791 1.082 0.5 
6.14919 0.632263 0.5 6.14909 0.675403 0.5 6.14899 0.71729 0.5 
6.1489 0.757387 0.5 6.14881 0.795252 0.5 6.14873 0.830557 0.5 
6.14865 0.863084 0.5 6.14858 0.892726 0.5 6.14852 0.919471 0.5 
6.14846 0.943388 0.5 6.14841 0.964605 0.5 6.14836 0.983295 0.5 
6.14833 0.999658 0.5 6.14829 1.01391 0.5 6.14826 1.02625 0.5 
6.14824 1.03691 0.5 6.14822 1.04608 0.5 6.1482 1.05394 0.5 
6.14818 1.06067 0.5 6.14817 1.06641 0.5 6.14815 1.0713 0.5 
6.14815 1.07546 0.5 6.14814 1.079 0.5 6.14813 1.082 0.5 
6.18944 0.629605 0.5 6.18934 0.673071 0.5 6.18923 0.715271 0.5 
6.18914 0.755661 0.5 6.18904 0.793797 0.5 6.18896 0.829346 0.5 
6.18888 0.86209 0.5 6.18881 0.89192 0.5 6.18874 0.918828 0.5 
6.18868 0.942881 0.5 6.18863 0.964212 0.5 6.18858 0.982995 0.5 
6.18854 0.999433 0.5 6.18851 1.01374 0.5 6.18848 1.02613 0.5 
6.18845 1.03683 0.5 6.18843 1.04602 0.5 6.18841 1.05391 0.5 
6.18839 1.06065 0.5 6.18838 1.0664 0.5 6.18837 1.0713 0.5 
6.18836 1.07546 0.5 6.18835 1.079 0.5 6.18834 1.082 0.5 
6.22967 0.626949 0.5 6.22956 0.670741 0.5 6.22946 0.713254 0.5 
6.22936 0.753938 0.5 6.22926 0.792344 0.5 6.22917 0.828137 0.5 
6.22909 0.861097 0.5 6.22902 0.891116 0.5 6.22895 0.918185 0.5 
6.22889 0.942375 0.5 6.22884 0.963819 0.5 6.22879 0.982695 0.5 
6.22875 0.999208 0.5 6.22871 1.01357 0.5 6.22868 1.02602 0.5 
6.22865 1.03675 0.5 6.22863 1.04597 0.5 6.22861 1.05387 0.5 
6.22859 1.06062 0.5 6.22858 1.06639 0.5 6.22857 1.07129 0.5 
6.22856 1.07546 0.5 6.22855 1.079 0.5 6.22854 1.082 0.5 
6.26988 0.624295 0.5 6.26977 0.668414 0.5 6.26966 0.711238 0.5 
6.26956 0.752215 0.5 6.26946 0.790892 0.5 6.26937 0.826928 0.5 
6.26929 0.860105 0.5 6.26921 0.890313 0.5 6.26915 0.917543 0.5 
6.26909 0.941869 0.5 6.26903 0.963427 0.5 6.26898 0.982396 0.5 
6.26894 0.998984 0.5 6.26891 1.01341 0.5 6.26887 1.0259 0.5 
6.26885 1.03666 0.5 6.26882 1.04591 0.5 6.2688 1.05383 0.5 
6.26879 1.0606 0.5 6.26877 1.06637 0.5 6.26876 1.07129 0.5 
6.26875 1.07546 0.5 6.26874 1.079 0.5 6.26873 1.082 0.5 
6.31006 0.621644 0.5 6.30995 0.666088 0.5 6.30985 0.709224 0.5 
6.30974 0.750495 0.5 6.30965 0.789441 0.5 6.30956 0.825721 0.5 
6.30947 0.859114 0.5 6.3094 0.88951 0.5 6.30933 0.916902 0.5 
6.30927 0.941365 0.5 6.30921 0.963036 0.5 6.30916 0.982097 0.5 
6.30912 0.99876 0.5 6.30909 1.01325 0.5 6.30905 1.02578 0.5 
6.30903 1.03658 0.5 6.309 1.04586 0.5 6.30898 1.0538 0.5 
6.30897 1.06058 0.5 6.30895 1.06636 0.5 6.30894 1.07128 0.5 
6.30893 1.07546 0.5 6.30892 1.079 0.5 6.30891 1.082 0.5 
6.35022 0.618995 0.5 6.35011 0.663765 0.5 6.35001 0.707213 0.5 
6.3499 0.748776 0.5 6.34981 0.787992 0.5 6.34972 0.824516 0.5 
6.34964 0.858124 0.5 6.34956 0.888709 0.5 6.34949 0.916262 0.5 
6.34943 0.94086 0.5 6.34938 0.962645 0.5 6.34933 0.981799 0.5 
6.34929 0.998536 0.5 6.34925 1.01308 0.5 6.34922 1.02566 0.5 
6.34919 1.0365 0.5 6.34917 1.0458 0.5 6.34915 1.05377 0.5 
6.34913 1.06056 0.5 6.34912 1.06635 0.5 6.34911 1.07127 0.5 
6.3491 1.07545 0.5 6.34909 1.079 0.5 6.34908 1.082 0.5 
6.39036 0.61635 0.5 6.39025 0.661444 0.5 6.39015 0.705204 0.5 
6.39005 0.747059 0.5 6.38995 0.786544 0.5 6.38986 0.823311 0.5 
6.38978 0.857136 0.5 6.38971 0.887908 0.5 6.38964 0.915622 0.5 
6.38958 0.940357 0.5 6.38953 0.962254 0.5 6.38948 0.981501 0.5 
6.38944 0.998313 0.5 6.38941 1.01292 0.5 6.38938 1.02555 0.5 
6.38935 1.03642 0.5 6.38933 1.04575 0.5 6.38931 1.05373 0.5 
6.38929 1.06054 0.5 6.38928 1.06634 0.5 6.38926 1.07127 0.5 
6.38925 1.07545 0.5 6.38925 1.079 0.5 6.38924 1.082 0.5 
[...]
POINT_DATA 9360
FIELD FieldData 5
pressure 1 9360 float
0.137465 0.13738 0.136603 0.137182 0.138479 0.140812 0.142924 0.145579 0.148007 
0.150432 0.15266 0.15456 0.155989 0.157822 0.159605 0.160893 0.161446 0.161375 
0.161271 0.160994 0.160835 0.160781 0.160743 0.160665 0.139951 0.14098 0.14032 
0.139841 0.140112 0.141594 0.144011 0.146885 0.149283 0.150649 0.151186 0.151374 
0.151346 0.151084 0.151121 0.151169 0.151668 0.151999 0.15244 0.152721 0.153094 
0.153167 0.153656 0.153787 0.142754 0.14041 0.139164 0.138724 0.138938 0.140238 
0.142184 0.144848 0.147414 0.148984 0.150289 0.150798 0.151553 0.152121 0.152229 
0.152685 0.152752 0.153342 0.15368 0.154183 0.154415 0.154875 0.155082 0.155122 
0.145784 0.142314 0.141067 0.140376 0.140559 0.14126 0.142638 0.144159 0.14615 
0.148005 0.14962 0.150736 0.151878 0.152485 0.152908 0.153128 0.153638 0.153641 
0.154309 0.15457 0.155124 0.155041 0.155326 0.155546 0.149403 0.145044 0.143557 
0.142594 0.142397 0.142835 0.143396 0.1447 0.145879 0.147687 0.149032 0.150733 
0.151871 0.152788 0.153072 0.153806 0.153691 0.154405 0.154534 0.154948 0.154897 
0.155023 0.155154 0.15497 0.151867 0.147027 0.145289 0.143885 0.143329 0.143384 
0.144238 0.144858 0.146354 0.147584 0.149413 0.15089 0.152402 0.153137 0.153861 
0.154119 0.154584 0.154405 0.154782 0.15474 0.154807 0.154749 0.154701 0.154877 
0.154151 0.148773 0.146592 0.144575 0.143737 0.144042 0.14435 0.145618 0.146645 
0.148478 0.149745 0.151764 0.153061 0.153956 0.154401 0.154709 0.154573 0.154789 
0.154798 0.154825 0.154759 0.1548 0.154987 0.154806 0.155804 0.150388 0.148058 
0.145458 0.144595 0.144233 0.145331 0.145891 0.147811 0.148947 0.151012 0.152625 
0.153907 0.154637 0.154871 0.154938 0.154901 0.154904 0.154967 0.15489 0.154999 
0.155088 0.155357 0.155562 0.157456 0.152311 0.149824 0.147079 0.1454 0.145651 
0.145765 0.147099 0.148397 0.15033 0.151789 0.153598 0.154685 0.155193 0.155401 
0.155191 0.155052 0.155294 0.155228 0.155531 0.155582 0.155937 0.156232 0.156147 
0.159363 0.154326 0.152129 0.148956 0.147587 0.146473 0.147392 0.147685 0.149843 
0.151139 0.1531 0.154371 0.155372 0.15585 0.155775 0.155752 0.155931 0.155873 
0.156273 0.156294 0.15679 0.156781 0.157233 0.157472 0.161321 0.156721 0.154616 
0.151764 0.149354 0.148707 0.148349 0.149287 0.150836 0.15266 0.154221 0.155517 
0.15623 0.156592 0.156737 0.156882 0.157015 0.157372 0.157491 0.157856 0.157942 
0.158315 0.158341 0.158642 0.163815 0.159336 0.157324 0.154276 0.152414 0.150619 
0.150593 0.150681 0.152569 0.153997 0.155691 0.15659 0.1574 0.157844 0.158123 
0.158276 0.158687 0.158796 0.159234 0.159329 0.159647 0.159675 0.159984 0.160192 
0.166125 0.162136 0.159986 0.157334 0.154964 0.153615 0.152587 0.152943 0.154108 
0.155735 0.156884 0.15797 0.158692 0.159196 0.159459 0.159875 0.159951 0.160507 
0.160473 0.16082 0.160835 0.16108 0.161172 0.161236 0.168532 0.16497 0.162673 
0.160003 0.158274 0.156304 0.155529 0.154933 0.156202 0.157074 0.158333 0.159076 
0.15987 0.160361 0.160909 0.161026 0.161533 0.16145 0.161842 0.161776 0.162022 
0.162031 0.162187 0.162216 0.171015 0.167536 0.16524 0.162819 0.160808 0.159459 
0.157796 0.157467 0.157613 0.15856 0.159119 0.159985 0.160697 0.161297 0.161602 
0.161942 0.161818 0.162191 0.162142 0.162331 0.162378 0.162509 0.162595 0.162524 
0.173185 0.170046 0.167787 0.165523 0.164089 0.16219 0.160734 0.159319 0.159388 
0.159331 0.159845 0.160461 0.160988 0.161381 0.161701 0.161582 0.161862 0.161706 
0.161918 0.161894 0.162078 0.162115 0.162236 0.162351 0.176361 0.173512 0.171463 
0.169462 0.167372 0.16558 0.163094 0.161538 0.160277 0.160072 0.160245 0.160594 
0.160873 0.161151 0.161123 0.1614 0.161302 0.161487 0.161412 0.161636 0.161667 
0.161823 0.162026 0.162007 0.179243 0.177136 0.174977 0.172541 0.170335 0.167803 
0.165115 0.162585 0.161227 0.160505 0.160468 0.160787 0.160717 0.161072 0.16111 
0.160925 0.161175 0.161118 0.161286 0.161262 0.161553 0.161557 0.161804 0.16205 
0.182093 0.180111 0.177342 0.174566 0.171778 0.169204 0.165856 0.163623 0.161639 
0.160928 0.16086 0.160687 0.160928 0.160856 0.160691 0.160889 0.160851 0.161185 
0.161052 0.161324 0.161362 0.161642 0.161695 0.161895 0.184012 0.181863 0.178792 
0.175685 0.172838 0.169855 0.166889 0.164101 0.162363 0.161508 0.161187 0.16105 
0.160982 0.160794 0.16101 0.160778 0.161137 0.161227 0.161507 0.161379 0.161741 
0.161826 0.162138 0.162429 0.185996 0.183555 0.180166 0.176887 0.173843 0.17113 
0.167653 0.165153 0.163056 0.16216 0.161868 0.161524 0.161336 0.161429 0.161213 
0.161454 0.161424 0.161821 0.161833 0.162085 0.162101 0.162494 0.16253 0.162804 
0.187869 0.185247 0.18193 0.178551 0.175553 0.172277 0.169148 0.166041 0.164019 
0.163143 0.162634 0.162316 0.16223 0.162124 0.16216 0.162082 0.162295 0.162417 
0.162884 0.162796 0.163095 0.163223 0.163546 0.163863 0.189839 0.187212 0.183965 
0.180517 0.17715 0.174116 0.170391 0.167493 0.165258 0.164251 0.163813 0.16342 
0.163294 0.163223 0.163274 0.163299 0.163377 0.163609 0.163777 0.16419 0.164068 
0.164454 0.164504 0.164786 0.192209 0.189298 0.186153 0.182561 0.17927 0.175631 
0.172251 0.168825 0.166587 0.165711 0.16501 0.164875 0.164637 0.164792 0.164642 
0.164749 0.16475 0.164802 0.16535 0.165483 0.165765 0.165789 0.166131 0.166434 
0.194477 0.191566 0.188442 0.184776 0.181138 0.177722 0.17383 0.170694 0.168281 
0.1672 0.166674 0.166333 0.166515 0.166175 0.166459 0.166319 0.166276 0.166637 
0.166705 0.167331 0.167307 0.167571 0.167626 0.167867 0.196849 0.19411 0.191019 
0.187123 0.18334 0.1795 0.175996 0.172454 0.170017 0.169067 0.16834 0.16845 
0.16794 0.168255 0.167998 0.16814 0.168265 0.168368 0.168835 0.168971 0.169508 
0.169402 0.169735 0.170003 0.199699 0.196507 0.193442 0.189646 0.185719 0.18173 
0.177948 0.174788 0.172272 0.171065 0.17053 0.170187 0.170265 0.169864 0.170169 
0.170043 0.170164 0.17062 0.170632 0.171193 0.171343 0.171735 0.171715 0.171856 
0.201852 0.198726 0.19578 0.191754 0.187984 0.18393 0.180286 0.17708 0.174767 
0.173712 0.172947 0.172808 0.172291 0.172502 0.172261 0.172156 0.172682 0.172772 
0.173242 0.173233 0.173866 0.173924 0.174381 0.174387 0.20444 0.200497 0.197578 
0.193607 0.189701 0.186187 0.18289 0.180225 0.178156 0.176896 0.176077 0.175382 
0.175344 0.174956 0.174784 0.175031 0.175136 0.175666 0.175702 0.176153 0.176127 
0.176766 0.176905 0.177083 0.204834 0.200966 0.19831 0.194597 0.191314 0.188205 
0.185622 0.183155 0.181403 0.180136 0.179639 0.179046 0.179036 0.178533 0.178796 
0.17849 0.178762 0.178642 0.178926 0.178829 0.179261 0.179255 0.17984 0.179862 
0.137465 0.13738 0.136603 0.137182 0.138479 0.140812 0.142924 0.145579 0.148007 
0.150432 0.15266 0.15456 0.155989 0.157822 0.159605 0.160893 0.161446 0.161375 
0.161271 0.160994 0.160835 0.160781 0.160743 0.160665 0.139951 0.14098 0.14032 
0.139841 0.140112 0.141594 0.144011 0.146885 0.149283 0.150649 0.151186 0.151374 
0.151346 0.151084 0.151121 0.151169 0.151668 0.151999 0.15244 0.152721 0.153094 
0.153167 0.153656 0.153787 0.142754 0.14041 0.139164 0.138724 0.138938 0.140238 
0.142184 0.144848 0.147414 0.148984 0.150289 0.150798 0.151553 0.152121 0.152229 
0.152685 0.152752 0.153342 0.15368 0.154183 0.154415 0.154875 0.155082 0.155122 
0.145784 0.142314 0.141067 0.140376 0.140559 0.14126 0.142638 0.144159 0.14615 
0.148005 0.14962 0.150736 0.151878 0.152485 0.152908 0.153128 0.153638 0.153641 
0.154309 0.15457 0.155124 0.155041 0.155326 0.155546 0.149403 0.145044 0.143557 
0.142594 0.142397 0.142835 0.143396 0.1447 0.145879 0.147687 0.149032 0.150733 
0.151871 0.152788 0.153072 0.153806 0.153691 0.154405 0.154534 0.154948 0.154897 
0.155023 0.155154 0.15497 0.151867 0.147027 0.145289 0.143885 0.143329 0.143384 
0.144238 0.144858 0.146354 0.147584 0.149413 0.15089 0.152402 0.153137 0.153861 
0.154119 0.154584 0.154405 0.154782 0.15474 0.154807 0.154749 0.154701 0.154877 
0.154151 0.148773 0.146592 0.144575 0.143737 0.144042 0.14435 0.145618 0.146645 
0.148478 0.149745 0.151764 0.153061 0.153956 0.154401 0.154709 0.154573 0.154789 
0.154798 0.154825 0.154759 0.1548 0.154987 0.154806 0.155804 0.150388 0.148058 
0.145458 0.144595 0.144233 0.145331 0.145891 0.147811 0.148947 0.151012 0.152625 
0.153907 0.154637 0.154871 0.154938 0.154901 0.154904 0.154967 0.15489 0.154999 
0.155088 0.155357 0.155562 0.157456 0.152311 0.149824 0.147079 0.1454 0.145651 
0.145765 0.147099 0.148397 0.15033 0.151789 0.153598 0.154685 0.155193 0.155401 
0.155191 0.155052 0.155294 0.155228 0.155531 0.155582 0.155937 0.156232 0.156147 
0.159363 0.154326 0.152129 0.148956 0.147587 0.146473 0.147392 0.147685 0.149843 
0.151139 0.1531 0.154371 0.155372 0.15585 0.155775 0.155752 0.155931 0.155873 
0.156273 0.156294 0.15679 0.156781 0.157233 0.157472 0.161321 0.156721 0.154616 
0.151764 0.149354 0.148707 0.148349 0.149287 0.150836 0.15266 0.154221 0.155517 
0.15623 0.156592 0.156737 0.156882 0.157015 0.157372 0.157491 0.157856 0.157942 
0.158315 0.158341 0.158642 0.163815 0.159336 0.157324 0.154276 0.152414 0.150619 
0.150593 0.150681 0.152569 0.153997 0.155691 0.15659 0.1574 0.157844 0.158123 
0.158276 0.158687 0.158796 0.159234 0.159329 0.159647 0.159675 0.159984 0.160192 
0.166125 0.162136 0.159986 0.157334 0.154964 0.153615 0.152587 0.152943 0.154108 
0.155735 0.156884 0.15797 0.158692 0.159196 0.159459 0.159875 0.159951 0.160507 
0.160473 0.16082 0.160835 0.16108 0.161172 0.161236 0.168532 0.16497 0.162673 
0.160003 0.158274 0.156304 0.155529 0.154933 0.156202 0.157074 0.158333 0.159076 
0.15987 0.160361 0.160909 0.161026 0.161533 0.16145 0.161842 0.161776 0.162022 
0.162031 0.162187 0.162216 0.171015 0.167536 0.16524 0.162819 0.160808 0.159459 
0.157796 0.157467 0.157613 0.15856 0.159119 0.159985 0.160697 0.161297 0.161602 
0.161942 0.161818 0.162191 0.162142 0.162331 0.162378 0.162509 0.162595 0.162524 
0.173185 0.170046 0.167787 0.165523 0.164089 0.16219 0.160734 0.159319 0.159388 
0.159331 0.159845 0.160461 0.160988 0.161381 0.161701 0.161582 0.161862 0.161706 
0.161918 0.161894 0.162078 0.162115 0.162236 0.162351 0.176361 0.173512 0.171463 
0.169462 0.167372 0.16558 0.163094 0.161538 0.160277 0.160072 0.160245 0.160594 
0.160873 0.161151 0.161123 0.1614 0.161302 0.161487 0.161412 0.161636 0.161667 
0.161823 0.162026 0.162007 0.179243 0.177136 0.174977 0.172541 0.170335 0.167803 
0.165115 0.162585 0.161227 0.160505 0.160468 0.160787 0.160717 0.161072 0.16111 
0.160925 0.161175 0.161118 0.161286 0.161262 0.161553 0.161557 0.161804 0.16205 
0.182093 0.180111 0.177342 0.174566 0.171778 0.169204 0.165856 0.163623 0.161639 
0.160928 0.16086 0.160687 0.160928 0.160856 0.160691 0.160889 0.160851 0.161185 
0.161052 0.161324 0.161362 0.161642 0.161695 0.161895 0.184012 0.181863 0.178792 
0.175685 0.172838 0.169855 0.166889 0.164101 0.162363 0.161508 0.161187 0.16105 
0.160982 0.160794 0.16101 0.160778 0.161137 0.161227 0.161507 0.161379 0.161741 
0.161826 0.162138 0.162429 0.185996 0.183555 0.180166 0.176887 0.173843 0.17113 
0.167653 0.165153 0.163056 0.16216 0.161868 0.161524 0.161336 0.161429 0.161213 
0.161454 0.161424 0.161821 0.161833 0.162085 0.162101 0.162494 0.16253 0.162804 
0.187869 0.185247 0.18193 0.178551 0.175553 0.172277 0.169148 0.166041 0.164019 
0.163143 0.162634 0.162316 0.16223 0.162124 0.16216 0.162082 0.162295 0.162417 
0.162884 0.162796 0.163095 0.163223 0.163546 0.163863 0.189839 0.187212 0.183965 
0.180517 0.17715 0.174116 0.170391 0.167493 0.165258 0.164251 0.163813 0.16342 
0.163294 0.163223 0.163274 0.163299 0.163377 0.163609 0.163777 0.16419 0.164068 
0.164454 0.164504 0.164786 0.192209 0.189298 0.186153 0.182561 0.17927 0.175631 
0.172251 0.168825 0.166587 0.165711 0.16501 0.164875 0.164637 0.164792 0.164642 
0.164749 0.16475 0.164802 0.16535 0.165483 0.165765 0.165789 0.166131 0.166434 
0.194477 0.191566 0.188442 0.184776 0.181138 0.177722 0.17383 0.170694 0.168281 
0.1672 0.166674 0.166333 0.166515 0.166175 0.166459 0.166319 0.166276 0.166637 
0.166705 0.167331 0.167307 0.167571 0.167626 0.167867 0.196849 0.19411 0.191019 
0.187123 0.18334 0.1795 0.175996 0.172454 0.170017 0.169067 0.16834 0.16845 
0.16794 0.168255 0.167998 0.16814 0.168265 0.168368 0.168835 0.168971 0.169508 
0.169402 0.169735 0.170003 0.199699 0.196507 0.193442 0.189646 0.185719 0.18173 
0.177948 0.174788 0.172272 0.171065 0.17053 0.170187 0.170265 0.169864 0.170169 
0.170043 0.170164 0.17062 0.170632 0.171193 0.171343 0.171735 0.171715 0.171856 
0.201852 0.198726 0.19578 0.191754 0.187984 0.18393 0.180286 0.17708 0.174767 
0.173712 0.172947 0.172808 0.172291 0.172502 0.172261 0.172156 0.172682 0.172772 
0.173242 0.173233 0.173866 0.173924 0.174381 0.174387 0.20444 0.200497 0.197578 
0.193607 0.189701 0.186187 0.18289 0.180225 0.178156 0.176896 0.176077 0.175382 
0.175344 0.174956 0.174784 0.175031 0.175136 0.175666 0.175702 0.176153 0.176127 
0.176766 0.176905 0.177083 0.204834 0.200966 0.19831 0.194597 0.191314 0.188205 
0.185622 0.183155 0.181403 0.180136 0.179639 0.179046 0.179036 0.178533 0.178796 
0.17849 0.178762 0.178642 0.178926 0.178829 0.179261 0.179255 0.17984 0.179862 
0.137866 0.137626 0.136889 0.137458 0.138743 0.14101 0.143193 0.145753 0.148307 
0.150661 0.153008 0.154739 0.156246 0.157897 0.159801 0.161253 0.161698 0.161774 
0.161405 0.161121 0.160987 0.160842 0.160771 0.16063 0.140383 0.141675 0.140931 
0.14048 0.140651 0.142168 0.144531 0.147444 0.149517 0.151009 0.151479 0.151815 
0.151672 0.151521 0.151252 0.151454 0.151722 0.152187 0.152469 0.152954 0.153122 
0.153436 0.15375 0.15375 0.143154 0.140977 0.139739 0.139257 0.139452 0.140703 
0.142681 0.145321 0.147522 0.149358 0.150344 0.151114 0.151698 0.152231 0.152546 
0.15273 0.153092 0.153334 0.153843 0.154046 0.154656 0.154705 0.155225 0.155299 
0.146215 0.142909 0.141641 0.140939 0.141028 0.141767 0.143069 0.144666 0.146563 
0.148215 0.149938 0.150952 0.151977 0.152552 0.152895 0.153237 0.153502 0.153987 
0.154164 0.154836 0.154924 0.15541 0.155461 0.155539 0.149742 0.145587 0.14404 
0.143186 0.14288 0.143311 0.143899 0.14512 0.14622 0.14802 0.149305 0.150877 
0.151898 0.152705 0.153167 0.153576 0.154093 0.154275 0.154844 0.154936 0.155298 
0.155302 0.155363 0.155254 0.152239 0.147592 0.145841 0.144196 0.143879 0.143919 
0.144639 0.145309 0.146723 0.147941 0.149604 0.150958 0.152357 0.153186 0.153678 
0.154272 0.1545 0.154936 0.154994 0.155202 0.155214 0.155215 0.155164 0.154918 
0.154478 0.149278 0.147071 0.145023 0.144099 0.144409 0.14482 0.145944 0.147041 
0.148725 0.150067 0.151816 0.153092 0.153864 0.154517 0.15476 0.155034 0.155115 
0.155168 0.155159 0.155115 0.155109 0.155064 0.155017 0.156033 0.150729 0.148561 
0.145888 0.144944 0.144691 0.145573 0.146294 0.148107 0.149338 0.15116 0.152724 
0.153918 0.15475 0.155028 0.155219 0.155281 0.155278 0.155308 0.1553 0.15536 
0.155405 0.155596 0.155522 0.157792 0.152532 0.150343 0.147479 0.14584 0.145791 
0.14617 0.147329 0.14882 0.150549 0.152239 0.15378 0.15486 0.15529 0.155525 
0.155585 0.155535 0.1556 0.155629 0.155715 0.155908 0.155991 0.156234 0.15631 
0.159468 0.154499 0.152596 0.149444 0.147708 0.146872 0.147529 0.148101 0.150098 
0.151599 0.153412 0.154859 0.155638 0.155969 0.156055 0.156001 0.156148 0.156279 
0.156388 0.156704 0.156777 0.157073 0.157304 0.157385 0.161607 0.156836 0.155095 
0.152062 0.149741 0.148804 0.148739 0.149511 0.1513 0.153004 0.154706 0.155874 
0.156503 0.156805 0.156894 0.156997 0.15723 0.15729 0.157711 0.157751 0.15819 
0.158219 0.158528 0.158751 0.163917 0.159428 0.157838 0.154765 0.152606 0.150993 
0.150779 0.15111 0.152864 0.154451 0.156001 0.157012 0.157613 0.157989 0.158157 
0.158446 0.158576 0.159051 0.159079 0.159549 0.159561 0.159911 0.16003 0.160102 
0.16644 0.162201 0.160375 0.157705 0.15538 0.153792 0.152976 0.153198 0.154524 
0.155966 0.157254 0.158146 0.158804 0.159199 0.159609 0.159752 0.160211 0.160261 
0.160724 0.160662 0.161063 0.16103 0.161232 0.161331 0.168794 0.164992 0.163095 
0.160489 0.158505 0.156686 0.155695 0.155342 0.156364 0.157413 0.158483 0.159262 
0.159945 0.160518 0.160804 0.161246 0.161362 0.161823 0.161755 0.162084 0.162047 
0.162244 0.16233 0.162334 0.171368 0.16764 0.16548 0.163195 0.161201 0.159599 
0.158126 0.157593 0.157949 0.158694 0.159426 0.160155 0.160841 0.161274 0.161771 
0.161992 0.162294 0.162182 0.162478 0.16245 0.162617 0.162644 0.162652 0.162702 
0.17357 0.170139 0.168258 0.165929 0.164277 0.162499 0.16083 0.159675 0.159517 
0.159651 0.160054 0.16057 0.161009 0.161501 0.161753 0.161948 0.161972 0.162128 
0.162067 0.162238 0.162263 0.162357 0.162429 0.162359 0.176662 0.173905 0.171912 
0.169774 0.167727 0.165735 0.163431 0.16171 0.160626 0.160295 0.160373 0.160655 
0.160993 0.161226 0.161399 0.161506 0.161692 0.161646 0.161761 0.161787 0.161922 
0.161978 0.161994 0.162038 0.179616 0.177451 0.175337 0.172879 0.170566 0.168137 
0.165286 0.162944 0.161455 0.160791 0.160724 0.160875 0.160928 0.161118 0.161174 
0.161296 0.161367 0.161538 0.161498 0.161652 0.161722 0.161829 0.161922 0.161931 
0.182375 0.180201 0.177583 0.174839 0.172053 0.169402 0.166185 0.163844 0.162006 
0.16127 0.161003 0.160974 0.160995 0.160964 0.161033 0.161044 0.16124 0.161415 
0.161492 0.161477 0.161689 0.161741 0.1619 0.162054 0.184412 0.181937 0.178955 
0.175881 0.173076 0.170153 0.16707 0.164465 0.16268 0.161743 0.161457 0.161299 
0.161174 0.161132 0.161133 0.161188 0.161317 0.161655 0.161714 0.16184 0.161911 
0.162147 0.162292 0.162292 0.186318 0.18357 0.180296 0.177175 0.174112 0.171308 
0.167985 0.165418 0.16339 0.162492 0.162063 0.161826 0.161669 0.161552 0.161544 
0.161595 0.161803 0.162077 0.162288 0.162264 0.162491 0.162595 0.162799 0.163008 
0.188041 0.185246 0.182137 0.178775 0.175785 0.172598 0.169359 0.166439 0.164423 
0.163364 0.162932 0.162661 0.162421 0.162377 0.16227 0.162403 0.162502 0.162881 
0.163112 0.163283 0.163278 0.163564 0.163734 0.163726 0.190194 0.187226 0.184119 
0.180859 0.177505 0.174315 0.170753 0.167805 0.165546 0.164524 0.164041 0.1637 
0.163566 0.163373 0.16344 0.163493 0.163678 0.163846 0.16424 0.164377 0.164509 
0.164581 0.164798 0.165044 0.19221 0.18927 0.186306 0.182863 0.179554 0.176003 
0.172481 0.169235 0.166998 0.165879 0.165379 0.1651 0.164884 0.164876 0.164835 
0.164941 0.165024 0.16533 0.165539 0.165915 0.165946 0.16612 0.16633 0.166307 
0.194572 0.191572 0.188509 0.185074 0.181508 0.177977 0.174227 0.171022 0.16852 
0.167499 0.166883 0.166636 0.166553 0.166394 0.166508 0.166542 0.166722 0.166843 
0.167213 0.167474 0.167711 0.167667 0.167904 0.168092 0.196851 0.194088 0.190999 
0.187234 0.183706 0.179921 0.176273 0.172873 0.170428 0.169235 0.16863 0.168447 
0.168229 0.168296 0.168175 0.168329 0.168519 0.168792 0.168953 0.169393 0.169599 
0.169741 0.169871 0.169865 0.1996 0.196532 0.193502 0.189603 0.185782 0.182093 
0.178375 0.175114 0.172495 0.171335 0.170644 0.170311 0.170256 0.17006 0.170203 
0.170187 0.170467 0.17075 0.171006 0.171166 0.171649 0.171776 0.171977 0.172098 
0.201887 0.198838 0.19591 0.191838 0.187969 0.184035 0.180631 0.177426 0.175145 
0.173837 0.173115 0.172808 0.172465 0.172521 0.172323 0.172477 0.17268 0.173001 
0.173258 0.173571 0.173735 0.174229 0.174411 0.174423 0.204308 0.20067 0.197779 
0.193751 0.189771 0.186263 0.183069 0.180577 0.178437 0.177267 0.176313 0.175672 
0.175335 0.175018 0.175013 0.175026 0.175247 0.175514 0.175813 0.176022 0.176389 
0.176489 0.176983 0.177122 0.205029 0.201292 0.198643 0.194856 0.191416 0.188232 
0.185741 0.183371 0.181727 0.180492 0.17984 0.179342 0.179003 0.178741 0.178642 
0.178595 0.178661 0.178737 0.178778 0.179011 0.179146 0.179497 0.179889 0.179873 
0.13798 0.137728 0.136898 0.137427 0.138669 0.140959 0.14307 0.145745 0.148224 
0.150812 0.152997 0.155007 0.156183 0.158017 0.159767 0.161327 0.161942 0.161878 
0.161533 0.161241 0.160979 0.160955 0.160831 0.160682 0.14048 0.141883 0.141201 
0.140629 0.140827 0.142288 0.144721 0.147596 0.149872 0.151189 0.151914 0.151916 
0.152194 0.151509 0.151488 0.15132 0.151817 0.151789 0.152534 0.152471 0.153167 
0.153036 0.153513 0.153498 0.143285 0.141142 0.139853 0.139375 0.139533 0.140817 