# vtk DataFile Version 5.1
vtk output
ASCII
DATASET POLYDATA
POINTS 899 float
0 1.25 1.1 0 1.33968 1.01032 -0.003 1.253 1.1 
-0.003 1.33968 1.01332 -0.00604287 1.25604 1.1 -0.00604287 1.33968 1.01636 
-0.0091721 1.25917 1.1 -0.0091721 1.33968 1.01949 -0.0124324 1.26243 1.1 
-0.0124324 1.33968 1.02275 -0.0158704 1.26587 1.1 -0.0158704 1.33968 1.02619 
-0.0195351 1.26954 1.1 -0.0195351 1.33968 1.02986 -0.0234791 1.27348 1.1 
-0.0234791 1.33968 1.0338 -0.0277585 1.27776 1.1 -0.0277585 1.33968 1.03808 
-0.0324346 1.28243 1.1 -0.0324346 1.33968 1.04275 -0.0375743 1.28757 1.1 
-0.0375743 1.33968 1.04789 -0.0432509 1.29325 1.1 -0.0432509 1.33968 1.05357 
-0.0495456 1.29955 1.1 -0.0495456 1.33968 1.05987 -0.0565483 1.30655 1.1 
-0.0565483 1.33968 1.06687 -0.0643591 1.31436 1.1 -0.0643591 1.33968 1.07468 
-0.0730896 1.32309 1.1 -0.0730896 1.33968 1.08341 -0.0828646 1.33286 1.1 
-0.08968 1.33968 1.1 -0.0828646 1.33968 1.09318 -0.0938238 1.34382 1.1 
-0.106124 1.35612 1.1 -0.11994 1.36994 1.1 -0.11994 1.46409 1.00585 
-0.135471 1.38547 1.1 -0.135471 1.46409 1.02138 -0.152937 1.40294 1.1 
-0.152937 1.46409 1.03885 -0.172589 1.42259 1.1 -0.172589 1.46409 1.0585 
-0.194708 1.44471 1.1 -0.21409 1.46409 1.1 -0.194708 1.46409 1.08062 
-0.219609 1.46961 1.1 -0.247648 1.49765 1.1 -0.279226 1.52923 1.1 
-0.279226 1.62671 1.00252 -0.314795 1.5648 1.1 -0.314795 1.62671 1.03808 
-0.354862 1.60486 1.1 -0.37671 1.62671 1.1 -0.354862 1.62671 1.07815 
-0.4 1.65 1.1 0 1.34785 1.00215 -0.003 1.35085 1.00215 
-0.00604287 1.35389 1.00215 -0.0091721 1.35702 1.00215 -0.0124324 1.36028 1.00215 
-0.0158704 1.36372 1.00215 -0.0195351 1.36739 1.00215 -0.0234791 1.37133 1.00215 
-0.0277585 1.37561 1.00215 -0.0324346 1.38028 1.00215 -0.0375743 1.38542 1.00215 
-0.0375743 1.46409 0.923484 -0.0432509 1.3911 1.00215 -0.0432509 1.46409 0.929161 
-0.0495456 1.3974 1.00215 -0.0495456 1.46409 0.935456 -0.0565483 1.4044 1.00215 
-0.0565483 1.46409 0.942458 -0.0643591 1.41221 1.00215 -0.0643591 1.46409 0.950269 
-0.0730896 1.42094 1.00215 -0.0730896 1.46409 0.959 -0.0828646 1.43071 1.00215 
-0.0828646 1.46409 0.968775 -0.0938238 1.44167 1.00215 -0.0938238 1.46409 0.979734 
-0.106124 1.45397 1.00215 -0.11624 1.46409 1.00215 -0.106124 1.46409 0.992034 
-0.11994 1.46779 1.00215 -0.135471 1.48332 1.00215 -0.152937 1.50079 1.00215 
-0.172589 1.52044 1.00215 -0.194708 1.54256 1.00215 -0.219609 1.56746 1.00215 
-0.219609 1.62671 0.942899 -0.247648 1.5955 1.00215 -0.27886 1.62671 1.00215 
-0.247648 1.62671 0.970938 -0.279226 1.62708 1.00215 -0.314795 1.66264 1.00215 
-0.354862 1.70271 1.00215 -0.4 1.74785 1.00215 0 1.42975 0.920246 
0 1.46409 0.88591 -0.003 1.43275 0.920246 -0.003 1.46409 0.88891 
-0.00604287 1.4358 0.920246 -0.00604287 1.46409 0.891953 -0.0091721 1.43893 0.920246 
-0.0091721 1.46409 0.895082 -0.0124324 1.44219 0.920246 -0.0124324 1.46409 0.898342 
-0.0158704 1.44562 0.920246 -0.0158704 1.46409 0.90178 -0.0195351 1.44929 0.920246 
-0.0195351 1.46409 0.905445 -0.0234791 1.45323 0.920246 -0.0234791 1.46409 0.909389 
-0.0277585 1.45751 0.920246 -0.0277585 1.46409 0.913669 -0.0324346 1.46219 0.920246 
-0.034336 1.46409 0.920246 -0.0324346 1.46409 0.918345 -0.0375743 1.46733 0.920246 
-0.0432509 1.473 0.920246 -0.0495456 1.4793 0.920246 -0.0565483 1.4863 0.920246 
-0.0643591 1.49411 0.920246 -0.0730896 1.50284 0.920246 -0.0828646 1.51262 0.920246 
-0.0938238 1.52358 0.920246 -0.106124 1.53588 0.920246 -0.11994 1.54969 0.920246 
-0.135471 1.56523 0.920246 -0.135471 1.62671 0.858761 -0.152937 1.58269 0.920246 
-0.152937 1.62671 0.876227 -0.172589 1.60234 0.920246 -0.172589 1.62671 0.895879 
-0.194708 1.62446 0.920246 -0.196956 1.62671 0.920246 -0.194708 1.62671 0.917998 
-0.219609 1.64936 0.920246 -0.247648 1.6774 0.920246 -0.279226 1.70898 0.920246 
-0.314795 1.74455 0.920246 -0.354862 1.78462 0.920246 -0.354862 1.84094 0.863922 
-0.4 1.82975 0.920246 -0.4 1.84094 0.90906 0 1.49832 0.851682 
-0.003 1.50132 0.851682 -0.00604287 1.50436 0.851682 -0.0091721 1.50749 0.851682 
-0.0124324 1.51075 0.851682 -0.0158704 1.51419 0.851682 -0.0195351 1.51785 0.851682 
-0.0234791 1.5218 0.851682 -0.0277585 1.52608 0.851682 -0.0324346 1.53075 0.851682 
-0.0375743 1.53589 0.851682 -0.0432509 1.54157 0.851682 -0.0495456 1.54786 0.851682 
-0.0565483 1.55487 0.851682 -0.0643591 1.56268 0.851682 -0.0730896 1.57141 0.851682 
-0.0730896 1.62671 0.79638 -0.0828646 1.58118 0.851682 -0.0828646 1.62671 0.806155 
-0.0938238 1.59214 0.851682 -0.0938238 1.62671 0.817114 -0.106124 1.60444 0.851682 
-0.106124 1.62671 0.829414 -0.11994 1.61826 0.851682 -0.128392 1.62671 0.851682 
-0.11994 1.62671 0.84323 -0.135471 1.63379 0.851682 -0.152937 1.65126 0.851682 
-0.172589 1.67091 0.851682 -0.194708 1.69303 0.851682 -0.219609 1.71793 0.851682 
-0.247648 1.74597 0.851682 -0.279226 1.77754 0.851682 -0.314795 1.81311 0.851682 
-0.342622 1.84094 0.851682 -0.314795 1.84094 0.823855 -0.354862 1.85318 0.851682 
-0.4 1.89832 0.851682 0 1.55572 0.794282 -0.003 1.55872 0.794282 
-0.00604287 1.56176 0.794282 -0.0091721 1.56489 0.794282 -0.0124324 1.56815 0.794282 
-0.0158704 1.57159 0.794282 -0.0195351 1.57525 0.794282 -0.0234791 1.5792 0.794282 
-0.0234791 1.62671 0.746769 -0.0277585 1.58348 0.794282 -0.0277585 1.62671 0.751048 
-0.0324346 1.58815 0.794282 -0.0324346 1.62671 0.755725 -0.0375743 1.59329 0.794282 
-0.0375743 1.62671 0.760864 -0.0432509 1.59897 0.794282 -0.0432509 1.62671 0.766541 
-0.0495456 1.60526 0.794282 -0.0495456 1.62671 0.772836 -0.0565483 1.61227 0.794282 
-0.0565483 1.62671 0.779838 -0.0643591 1.62008 0.794282 -0.0709921 1.62671 0.794282 
-0.0643591 1.62671 0.787649 -0.0730896 1.62881 0.794282 -0.0828646 1.63858 0.794282 
-0.0938238 1.64954 0.794282 -0.106124 1.66184 0.794282 -0.11994 1.67566 0.794282 
-0.135471 1.69119 0.794282 -0.152937 1.70865 0.794282 -0.172589 1.72831 0.794282 
-0.194708 1.75043 0.794282 -0.219609 1.77533 0.794282 -0.247648 1.80337 0.794282 
-0.247648 1.84094 0.756708 -0.279226 1.83494 0.794282 -0.285222 1.84094 0.794282 
-0.279226 1.84094 0.788286 -0.314795 1.87051 0.794282 -0.354862 1.91058 0.794282 
-0.4 1.95572 0.794282 0 1.60377 0.746226 0 1.62671 0.72329 
-0.003 1.60677 0.746226 -0.003 1.62671 0.72629 -0.00604287 1.60982 0.746226 
-0.00604287 1.62671 0.729333 -0.0091721 1.61295 0.746226 -0.0091721 1.62671 0.732462 
-0.0124324 1.61621 0.746226 -0.0124324 1.62671 0.735722 -0.0158704 1.61964 0.746226 
-0.0158704 1.62671 0.73916 -0.0195351 1.62331 0.746226 -0.022936 1.62671 0.746226 
-0.0195351 1.62671 0.742825 -0.0234791 1.62725 0.746226 -0.0277585 1.63153 0.746226 
-0.0324346 1.63621 0.746226 -0.0375743 1.64135 0.746226 -0.0432509 1.64702 0.746226 
-0.0495456 1.65332 0.746226 -0.0565483 1.66032 0.746226 -0.0643591 1.66813 0.746226 
-0.0730896 1.67686 0.746226 -0.0828646 1.68664 0.746226 -0.0938238 1.6976 0.746226 
-0.106124 1.7099 0.746226 -0.11994 1.72371 0.746226 -0.135471 1.73925 0.746226 
-0.152937 1.75671 0.746226 -0.172589 1.77636 0.746226 -0.194708 1.79848 0.746226 
-0.219609 1.82338 0.746226 -0.237166 1.84094 0.746226 -0.219609 1.84094 0.728669 
-0.247648 1.85142 0.746226 -0.279226 1.883 0.746226 -0.314795 1.91857 0.746226 
-0.354862 1.95864 0.746226 -0.4 2.00377 0.746226 0 1.64401 0.705987 
-0.003 1.64701 0.705987 -0.00604287 1.65006 0.705987 -0.0091721 1.65319 0.705987 
-0.0124324 1.65645 0.705987 -0.0158704 1.65988 0.705987 -0.0195351 1.66355 0.705987 
-0.0234791 1.66749 0.705987 -0.0277585 1.67177 0.705987 -0.0324346 1.67645 0.705987 
-0.0375743 1.68159 0.705987 -0.0432509 1.68726 0.705987 -0.0495456 1.69356 0.705987 
-0.0565483 1.70056 0.705987 -0.0643591 1.70837 0.705987 -0.0730896 1.7171 0.705987 
-0.0828646 1.72688 0.705987 -0.0938238 1.73784 0.705987 -0.106124 1.75014 0.705987 
-0.11994 1.76395 0.705987 -0.135471 1.77948 0.705987 -0.152937 1.79695 0.705987 
-0.172589 1.8166 0.705987 -0.172589 1.84094 0.681649 -0.194708 1.83872 0.705987 
-0.196927 1.84094 0.705987 -0.194708 1.84094 0.703768 -0.219609 1.86362 0.705987 
-0.247648 1.89166 0.705987 -0.279226 1.92324 0.705987 -0.314795 1.95881 0.705987 
-0.354862 1.99888 0.705987 -0.4 2.04401 0.705987 0 1.67771 0.672287 
-0.003 1.68071 0.672287 -0.00604287 1.68376 0.672287 -0.0091721 1.68689 0.672287 
-0.0124324 1.69015 0.672287 -0.0158704 1.69358 0.672287 -0.0195351 1.69725 0.672287 
-0.0234791 1.70119 0.672287 -0.0277585 1.70547 0.672287 -0.0324346 1.71015 0.672287 
-0.0375743 1.71529 0.672287 -0.0432509 1.72096 0.672287 -0.0495456 1.72726 0.672287 
-0.0565483 1.73426 0.672287 -0.0643591 1.74207 0.672287 -0.0730896 1.7508 0.672287 
-0.0828646 1.76058 0.672287 -0.0938238 1.77154 0.672287 -0.106124 1.78384 0.672287 
-0.11994 1.79765 0.672287 -0.135471 1.81318 0.672287 -0.135471 1.84094 0.644531 
-0.152937 1.83065 0.672287 -0.163227 1.84094 0.672287 -0.152937 1.84094 0.661997 
-0.172589 1.8503 0.672287 -0.194708 1.87242 0.672287 -0.219609 1.89732 0.672287 
-0.247648 1.92536 0.672287 -0.279226 1.95694 0.672287 -0.314795 1.99251 0.672287 
-0.354862 2.03258 0.672287 -0.4 2.07771 0.672287 0 1.70594 0.644057 
-0.003 1.70894 0.644057 -0.00604287 1.71199 0.644057 -0.0091721 1.71512 0.644057 
-0.0124324 1.71838 0.644057 -0.0158704 1.72181 0.644057 -0.0195351 1.72548 0.644057 
-0.0234791 1.72942 0.644057 -0.0277585 1.7337 0.644057 -0.0324346 1.73838 0.644057 
-0.0375743 1.74352 0.644057 -0.0432509 1.74919 0.644057 -0.0495456 1.75549 0.644057 
-0.0565483 1.76249 0.644057 -0.0643591 1.7703 0.644057 -0.0730896 1.77903 0.644057 
-0.0828646 1.78881 0.644057 -0.0938238 1.79977 0.644057 -0.106124 1.81207 0.644057 
-0.11994 1.82588 0.644057 -0.134997 1.84094 0.644057 -0.11994 1.84094 0.629 
-0.135471 1.84141 0.644057 -0.152937 1.85888 0.644057 -0.172589 1.87853 0.644057 
-0.194708 1.90065 0.644057 -0.219609 1.92555 0.644057 -0.247648 1.95359 0.644057 
-0.279226 1.98517 0.644057 -0.314795 2.02074 0.644057 -0.354862 2.06081 0.644057 
-0.4 2.10594 0.644057 -0.4 2.1244 0.6256 0 1.7296 0.6204 
-0.003 1.7326 0.6204 -0.00604287 1.73564 0.6204 -0.0091721 1.73877 0.6204 
[...]
POINT_DATA 899
FIELD FieldData 5
pressure 1 899 float
0.178573 0.178573 0.178573 0.178573 0.178573 0.178573 0.178573 0.178573 0.178573 
0.178573 0.178573 0.178573 0.178573 0.178573 0.178573 0.178573 0.178573 0.178573 
0.178573 0.178573 0.178573 0.178573 0.178573 0.178573 0.178573 0.178573 0.178573 
0.178573 0.178573 0.178573 0.178573 0.178573 0.178573 0.178573 0.178573 0.178573 
0.178573 0.178573 0.178573 0.178573 0.178573 0.178573 0.178573 0.178573 0.178573 
0.178573 0.178573 0.178573 0.178573 0.178573 0.178573 0.178573 0.178573 0.178573 
0.178573 0.178573 0.178573 0.178573 0.178573 0.178573 0.178573 0.178573 0.178573 
0.178573 0.178573 0.178573 0.178573 0.178573 0.178573 0.178573 0.178573 0.178573 
0.178573 0.178573 0.178573 0.178573 0.178573 0.178573 0.178573 0.178573 0.178573 
0.178573 0.178573 0.178573 0.178573 0.178573 0.178573 0.178573 0.178573 0.178573 
0.178573 0.178573 0.178573 0.178573 0.178573 0.178573 0.178573 0.178573 0.178573 
0.178573 0.178573 0.178573 0.178573 0.178573 0.178573 0.178573 0.178573 0.178573 
0.178573 0.178573 0.178573 0.178573 0.178573 0.178573 0.178573 0.178573 0.178573 
0.178573 0.178573 0.178573 0.178573 0.178573 0.178573 0.178573 0.178573 0.178573 
0.178573 0.178573 0.178573 0.178573 0.178573 0.178573 0.178573 0.178573 0.178573 
0.178573 0.178573 0.178573 0.178573 0.178573 0.178573 0.178573 0.178573 0.178573 
0.178573 0.178573 0.178573 0.178573 0.178573 0.178573 0.178573 0.178573 0.178573 
0.178573 0.178573 0.178573 0.178573 0.178573 0.178573 0.178573 0.178573 0.178573 
0.178573 0.178573 0.178573 0.178573 0.178573 0.178573 0.178573 0.178573 0.178573 
0.178573 0.178573 0.178573 0.178573 0.178573 0.178573 0.178573 0.178573 0.178573 
0.178573 0.178573 0.178573 0.178573 0.178573 0.178573 0.178573 0.178573 0.178573 
0.178573 0.178573 0.178573 0.178573 0.178573 0.178573 0.178573 0.178573 0.178573 
0.178573 0.178573 0.178573 0.178573 0.178573 0.178573 0.178573 0.178573 0.178573 
0.178573 0.178573 0.178573 0.178573 0.178573 0.178573 0.178573 0.178573 0.178573 
0.178573 0.178573 0.178573 0.178573 0.178573 0.178573 0.178573 0.178573 0.178573 
0.178573 0.178573 0.178573 0.178573 0.178573 0.178573 0.178573 0.178573 0.178573 
0.178573 0.178573 0.178573 0.178573 0.178573 0.178573 0.178573 0.178573 0.178573 
0.178573 0.178573 0.178573 0.178573 0.178573 0.178573 0.178573 0.178573 0.178573 
0.178573 0.178573 0.178573 0.178573 0.178573 0.178573 0.178573 0.178573 0.178573 
0.178573 0.178573 0.178573 0.178573 0.178573 0.178573 0.178573 0.178573 0.178573 
0.178573 0.178573 0.178573 0.178573 0.178573 0.178573 0.178573 0.178573 0.178573 
0.178573 0.178573 0.178573 0.178573 0.178573 0.178573 0.178573 0.178573 0.178573 
0.178573 0.178573 0.178573 0.178573 0.178573 0.178573 0.178573 0.178573 0.178573 
0.178573 0.178573 0.178573 0.178573 0.178573 0.178573 0.178573 0.178573 0.178573 
0.178573 0.178573 0.178573 0.178573 0.178573 0.178573 0.178573 0.178573 0.178573 
0.178573 0.178573 0.178573 0.178573 0.178573 0.178573 0.178573 0.178573 0.178573 
0.178573 0.178573 0.178573 0.178573 0.178573 0.178573 0.178573 0.178573 0.178573 
0.178573 0.178573 0.178573 0.178573 0.178573 0.178573 0.178573 0.178573 0.178573 
0.178573 0.178573 0.178573 0.178573 0.178573 0.178573 0.178573 0.178573 0.178573 
0.178573 0.178573 0.178573 0.178573 0.178573 0.178573 0.178573 0.178573 0.178573 
0.178573 0.178573 0.178573 0.178573 0.178573 0.178573 0.178573 0.178573 0.178573 
0.178573 0.178573 0.178573 0.178573 0.178573 0.178573 0.178573 0.178573 0.178573 
0.178573 0.178573 0.178573 0.178573 0.178573 0.178573 0.178573 0.178573 0.178573 
0.178573 0.178573 0.178573 0.178573 0.178573 0.178573 0.178573 0.178573 0.178573 
0.178573 0.178573 0.178573 0.178573 0.178573 0.178573 0.178573 0.178573 0.178573 
0.178573 0.178573 0.178573 0.178573 0.178573 0.178573 0.178573 0.178573 0.178573 
0.178573 0.178573 0.178573 0.178573 0.178573 0.178573 0.178573 0.178573 0.178573 
0.178573 0.178573 0.178573 0.178573 0.178573 0.178573 0.178573 0.178573 0.178573 
0.178573 0.178573 0.178573 0.178573 0.178573 0.178573 0.178573 0.178573 0.178573 
0.178573 0.178573 0.178573 0.178573 0.178573 0.178573 0.178573 0.178573 0.178573 
0.178573 0.178573 0.178573 0.178573 0.178573 0.178573 0.178573 0.178573 0.178573 
0.178573 0.178573 0.178573 0.178573 0.178573 0.178573 0.178573 0.178573 0.178573 
0.178573 0.178573 0.178573 0.178573 0.178573 0.178573 0.178573 0.178573 0.178573 
0.178573 0.178573 0.178573 0.178573 0.178573 0.178573 0.178573 0.178573 0.178573 
0.178573 0.178573 0.178573 0.178573 0.178573 0.178573 0.178573 0.178573 0.178573 
0.178573 0.178573 0.178573 0.178573 0.178573 0.178573 0.178573 0.178573 0.178573 
0.178573 0.178573 0.178573 0.178573 0.178573 0.178573 0.178573 0.178573 0.178573 
0.178573 0.178573 0.178573 0.178573 0.178573 0.178573 0.178573 0.178573 0.178573 
0.178573 0.178573 0.178573 0.178573 0.178573 0.178573 0.178573 0.178573 0.178573 
0.178573 0.178573 0.178573 0.178573 0.178573 0.178573 0.178573 0.178573 0.178573 
0.178573 0.178573 0.178573 0.178573 0.178573 0.178573 0.178573 0.178573 0.178573 
0.178573 0.178573 0.178573 0.178573 0.178573 0.178573 0.178573 0.178573 0.178573 
0.178573 0.178573 0.178573 0.178573 0.178573 0.178573 0.178573 0.178573 0.178573 
0.178573 0.178573 0.178573 0.178573 0.178573 0.178573 0.178573 0.178573 0.178573 
0.178573 0.178573 0.178573 0.178573 0.178573 0.178573 0.178573 0.178573 0.178573 
0.178573 0.178573 0.178573 0.178573 0.178573 0.178573 0.178573 0.178573 0.178573 
0.178573 0.178573 0.178573 0.178573 0.178573 0.178573 0.178573 0.178573 0.178573 
0.178573 0.178573 0.178573 0.178573 0.178573 0.178573 0.178573 0.178573 0.178573 
0.178573 0.178573 0.178573 0.178573 0.178573 0.178573 0.178573 0.178573 0.178573 
0.178573 0.178573 0.178573 0.178573 0.178573 0.178573 0.178573 0.178573 0.178573 
0.178573 0.178573 0.178573 0.178573 0.178573 0.178573 0.178573 0.178573 0.178573 
0.178573 0.178573 0.178573 0.178573 0.178573 0.178573 0.178573 0.178573 0.178573 
0.178573 0.178573 0.178573 0.178573 0.178573 0.178573 0.178573 0.178573 0.178573 
0.178573 0.178573 0.178573 0.178573 0.178573 0.178573 0.178573 0.178573 0.178573 
0.178573 0.178573 0.178573 0.178573 0.178573 0.178573 0.178573 0.178573 0.178573 
0.178573 0.178573 0.178573 0.178573 0.178573 0.178573 0.178573 0.178573 0.178573 
0.178573 0.178573 0.178573 0.178573 0.178573 0.178573 0.178573 0.178573 0.178573 
0.178573 0.178573 0.178573 0.178573 0.178573 0.178573 0.178573 0.178573 0.178573 
0.178573 0.178573 0.178573 0.178573 0.178573 0.178573 0.178573 0.178573 0.178573 
0.178573 0.178573 0.178573 0.178573 0.178573 0.178573 0.178573 0.178573 0.178573 
0.178573 0.178573 0.178573 0.178573 0.178573 0.178573 0.178573 0.178573 0.178573 
0.178573 0.178573 0.178573 0.178573 0.178573 0.178573 0.178573 0.178573 0.178573 
0.178573 0.178573 0.178573 0.178573 0.178573 0.178573 0.178573 0.178573 0.178573 
0.178573 0.178573 0.178573 0.178573 0.178573 0.178573 0.178573 0.178573 0.178573 
0.178573 0.178573 0.178573 0.178573 0.178573 0.178573 0.178573 0.178573 0.178573 
0.178573 0.178573 0.178573 0.178573 0.178573 0.178573 0.178573 0.178573 0.178573 
0.178573 0.178573 0.178573 0.178573 0.178573 0.178573 0.178573 0.178573 0.178573 
0.178573 0.178573 0.178573 0.178573 0.178573 0.178573 0.178573 0.178573 0.178573 
0.178573 0.178573 0.178573 0.178573 0.178573 0.178573 0.178573 0.178573 0.178573 
0.178573 0.178573 0.178573 0.178573 0.178573 0.178573 0.178573 0.178573 0.178573 
0.178573 0.178573 0.178573 0.178573 0.178573 0.178573 0.178573 0.178573 0.178573 
0.178573 0.178573 0.178573 0.178573 0.178573 0.178573 0.178573 0.178573 0.178573 
0.178573 0.178573 0.178573 0.178573 0.178573 0.178573 0.178573 0.178573 0.178573 
0.178573 0.178573 0.178573 0.178573 0.178573 0.178573 0.178573 0.178573 0.178573 
0.178573 0.178573 0.178573 0.178573 0.178573 0.178573 0.178573 0.178573 0.178573 
0.178573 0.178573 0.178573 0.178573 0.178573 0.178573 0.178573 0.178573 0.178573 
0.178573 0.178573 0.178573 0.178573 0.178573 0.178573 0.178573 0.178573 0.178573 
0.178573 0.178573 0.178573 0.178573 0.178573 0.178573 0.178573 0.178573 0.178573 
0.178573 0.178573 0.178573 0.178573 0.178573 0.178573 0.178573 0.178573 0.178573 
0.178573 0.178573 0.178573 0.178573 0.178573 0.178573 0.178573 0.178573 
velocity_u 1 899 float
1 1 1 1 1 1 1 1 1 
1 1 1 1 1 1 1 1 1 
1 1 1 1 1 1 1 1 1 
1 1 1 1 1 1 1 1 1 
1 1 1 1 1 1 1 1 1 
1 1 1 1 1 1 1 1 1 
1 1 1 1 1 1 1 1 1 
1 1 1 1 1 1 1 1 1 
1 1 1 1 1 1 1 1 1 
1 1 1 1 1 1 1 1 1 
1 1 1 1 1 1 1 1 1 
1 1 1 1 1 1 1 1 1 
1 1 1 1 1 1 1 1 1 
1 1 1 1 1 1 1 1 1 
1 1 1 1 1 1 1 1 1 
1 1 1 1 1 1 1 1 1 
1 1 1 1 1 1 1 1 1 
1 1 1 1 1 1 1 1 1 
1 1 1 1 1 1 1 1 1 
1 1 1 1 1 1 1 1 1 
1 1 1 1 1 1 1 1 1 
1 1 1 1 1 1 1 1 1 
1 1 1 1 1 1 1 1 1 
1 1 1 1 1 1 1 1 1 
1 1 1 1 1 1 1 1 1 
1 1 1 1 1 1 1 1 1 
1 1 1 1 1 1 1 1 1 
1 1 1 1 1 1 1 1 1 
1 1 1 1 1 1 1 1 1 
1 1 1 1 1 1 1 1 1 
1 1 1 1 1 1 1 1 1 
1 1 1 1 1 1 1 1 1 
1 1 1 1 1 1 1 1 1 
1 1 1 1 1 1 1 1 1 
1 1 1 1 1 1 1 1 1 
1 1 1 1 1 1 1 1 1 
1 1 1 1 1 1 1 1 1 
1 1 1 1 1 1 1 1 1 
1 1 1 1 1 1 1 1 1 
1 1 1 1 1 1 1 1 1 
1 1 1 1 1 1 1 1 1 
1 1 1 1 1 1 1 1 1 
1 1 1 1 1 1 1 1 1 
1 1 1 1 1 1 1 1 1 
1 1 1 1 1 1 1 1 1 
1 1 1 1 1 1 1 1 1 
1 1 1 1 1 1 1 1 1 
1 1 1 1 1 1 1 1 1 
1 1 1 1 1 1 1 1 1 
1 1 1 1 1 1 1 1 1 
1 1 1 1 1 1 1 1 1 
1 1 1 1 1 1 1 1 1 
1 1 1 1 1 1 1 1 1 
1 1 1 1 1 1 1 1 1 
1 1 1 1 1 1 1 1 1 
1 1 1 1 1 1 1 1 1 
1 1 1 1 1 1 1 1 1 
1 1 1 1 1 1 1 1 1 
1 1 1 1 1 1 1 1 1 
1 1 1 1 1 1 1 1 1 
1 1 1 1 1 1 1 1 1 
1 1 1 1 1 1 1 1 1 
1 1 1 1 1 1 1 1 1 
1 1 1 1 1 1 1 1 1 
1 1 1 1 1 1 1 1 1 
1 1 1 1 1 1 1 1 1 
1 1 1 1 1 1 1 1 1 
1 1 1 1 1 1 1 1 1 
1 1 1 1 1 1 1 1 1 
1 1 1 1 1 1 1 1 1 
1 1 1 1 1 1 1 1 1 
1 1 1 1 1 1 1 1 1 
1 1 1 1 1 1 1 1 1 
1 1 1 1 1 1 1 1 1 
1 1 1 1 1 1 1 1 1 
1 1 1 1 1 1 1 1 1 
1 1 1 1 1 1 1 1 1 
1 1 1 1 1 1 1 1 1 
1 1 1 1 1 1 1 1 1 
1 1 1 1 1 1 1 1 1 
1 1 1 1 1 1 1 1 1 
1 1 1 1 1 1 1 1 1 
1 1 1 1 1 1 1 1 1 
1 1 1 1 1 1 1 1 1 
1 1 1 1 1 1 1 1 1 
1 1 1 1 1 1 1 1 1 
1 1 1 1 1 1 1 1 1 
1 1 1 1 1 1 1 1 1 
1 1 1 1 1 1 1 1 1 
1 1 1 1 1 1 1 1 1 
1 1 1 1 1 1 1 1 1 
1 1 1 1 1 1 1 1 1 
1 1 1 1 1 1 1 1 1 
1 1 1 1 1 1 1 1 1 
1 1 1 1 1 1 1 1 1 
1 1 1 1 1 1 1 1 1 
1 1 1 1 1 1 1 1 1 
1 1 1 1 1 1 1 1 1 
1 1 1 1 1 1 1 1 1 
1 1 1 1 1 1 1 1 
velocity_v 1 899 float
-1.3458e-09 -1.91731e-08 -1.26379e-09 -1.24762e-08 0 -1.43771e-08 0 -1.97205e-08 0 
-1.55458e-08 0 -1.41485e-08 0 -1.21017e-08 0 -1.07584e-08 0 -5.86892e-09 
0 -9.91483e-10 0 -6.2981e-10 0 -4.14728e-09 0 -6.37039e-09 0 
-4.62516e-09 0 -4.05548e-09 0 -3.11846e-09 0 0 -1.15443e-09 0 
0 0 1.33592e-08 0 1.33829e-08 0 6.77783e-09 0 2.22975e-09 
0 0 1.93107e-09 0 0 0 1.23141e-08 0 3.41869e-09 
0 1.54649e-09 2.52924e-12 2.84769e-09 -1.89907e-08 -1.17109e-08 -1.54323e-08 -2.1348e-08 -1.71606e-08 
-1.41342e-08 -1.29694e-08 -1.22874e-08 -5.79357e-09 -7.96821e-10 -8.88403e-10 -2.20347e-09 -5.26838e-09 -7.42255e-10 
-7.51147e-09 2.45447e-09 -4.64685e-09 4.99294e-09 -3.52031e-09 4.11987e-09 -1.1704e-09 4.46966e-09 1.45343e-10 
5.06518e-09 4.16312e-09 7.02985e-09 8.82658e-09 1.30762e-08 9.08561e-09 1.40423e-08 1.7188e-08 1.31014e-08 
9.86092e-09 1.13306e-08 1.29665e-08 3.98841e-09 1.30895e-08 1.24136e-08 1.05357e-08 1.23273e-08 3.80085e-09 
2.80109e-10 1.65665e-09 -2.60169e-09 7.84431e-10 -4.17941e-10 8.08906e-09 -2.45292e-09 2.07028e-09 -4.9262e-09 
1.6102e-09 -4.45318e-09 1.71594e-09 -1.91973e-09 9.73625e-10 -9.38811e-10 1.42763e-09 1.95462e-09 3.5836e-09 
6.72873e-09 7.21992e-09 -2.3425e-10 -9.66381e-10 -4.66053e-11 -2.16717e-09 -2.16368e-10 3.4673e-09 6.82347e-09 
5.38293e-09 5.09758e-09 6.55585e-09 5.24887e-09 3.04565e-09 3.04488e-09 2.32588e-09 -5.12438e-09 3.0921e-09 
-4.4859e-09 2.02084e-09 8.8671e-10 1.09253e-09 1.01967e-09 5.43773e-10 -2.26627e-10 -4.65267e-10 -3.81414e-09 
-6.92336e-09 1.44003e-10 -5.06611e-09 1.87685e-09 1.36952e-09 6.28722e-09 1.13622e-08 4.70252e-09 7.22655e-09 
6.18207e-09 4.59675e-10 6.54213e-10 1.22564e-09 -4.66517e-09 -4.50409e-09 -2.03222e-09 5.0413e-10 5.33826e-09 
4.55384e-09 4.80257e-09 2.95097e-09 2.77229e-09 3.16041e-09 2.17274e-09 2.9745e-10 -1.99821e-10 -3.16774e-09 
-1.94849e-09 -7.19194e-09 -7.43423e-09 -6.75008e-09 -6.76856e-09 -1.07241e-08 -6.40474e-09 -1.33533e-08 -1.16179e-08 
-9.10503e-09 -4.55893e-09 -7.31e-09 -6.56184e-09 -4.51442e-09 -6.07693e-09 -1.39772e-09 2.01754e-10 -5.47537e-09 
-6.56462e-09 -6.71314e-09 -9.0723e-09 -9.57906e-09 -8.62636e-09 -8.28837e-09 -1.40587e-08 -1.06075e-08 -7.57478e-09 
-1.35727e-08 -1.06295e-08 -9.18952e-09 -1.18097e-08 -1.7856e-09 -6.9803e-09 -2.83394e-09 -2.58229e-09 1.71016e-09 
8.47102e-10 3.73294e-09 3.24792e-09 3.52799e-09 2.9642e-09 2.8257e-09 1.23427e-09 2.04868e-09 1.21186e-09 
3.28448e-10 -1.66953e-09 -2.27371e-09 -8.22879e-10 1.04565e-09 1.14239e-09 -2.22907e-09 1.72332e-09 6.29596e-10 
1.21735e-09 -2.41878e-09 -5.45783e-09 -2.85163e-09 -3.51981e-09 -5.2558e-09 -1.82881e-09 -2.75001e-09 -1.12853e-08 
-9.39277e-09 -1.22798e-08 -1.02425e-08 -7.70803e-09 -6.99386e-09 -6.41129e-09 -5.13528e-09 -1.37371e-08 -1.4109e-08 
-1.26816e-08 -1.411e-08 -7.43419e-09 -9.84425e-09 -1.25374e-08 -1.15401e-08 -2.92963e-09 -2.66484e-09 -2.2396e-10 
1.4921e-09 2.56017e-09 4.43367e-09 4.71224e-09 4.0109e-09 2.34944e-09 2.50109e-09 2.0099e-09 4.20649e-10 
-7.18315e-11 -2.19728e-09 -3.33383e-09 -2.33967e-09 1.10698e-09 -1.67262e-09 -3.03185e-09 -6.68923e-12 -7.20185e-09 
-3.30295e-09 -5.96201e-09 -5.08281e-09 -3.83977e-09 -1.6909e-10 -7.9729e-10 -4.74547e-09 -6.28286e-09 -5.02425e-09 
-3.81865e-09 -3.67135e-09 -2.29219e-09 2.19267e-09 1.22903e-09 2.44138e-09 3.23498e-09 1.91382e-09 -3.58809e-11 
-9.26685e-10 -1.01817e-09 1.00458e-09 -3.9609e-09 -4.77021e-09 -4.48897e-09 -4.80634e-09 -4.60835e-09 -5.19456e-09 
-1.82296e-09 2.61689e-09 4.57808e-09 2.4584e-09 1.02491e-09 -1.255e-08 -1.23979e-08 -1.44664e-08 -1.32132e-08 
-1.29067e-08 -1.10707e-08 -8.87334e-09 -1.14066e-08 -1.63517e-08 -1.68086e-08 -1.1933e-08 -8.67616e-09 -6.00499e-09 
-7.82148e-09 -4.65033e-09 -4.11627e-09 -4.67637e-09 -2.8675e-09 -3.81804e-09 -3.63459e-09 -3.51484e-09 -4.69126e-09 
-5.3268e-09 -5.08822e-09 -5.53082e-09 -3.63529e-09 -1.86512e-09 1.29745e-09 2.36204e-09 9.64596e-10 1.5354e-09 
-3.06698e-09 6.67176e-10 -1.64557e-09 4.34227e-10 -2.48309e-10 5.9755e-10 -2.08913e-10 1.47091e-09 1.44848e-09 
-3.59512e-10 -1.85923e-09 -2.60041e-09 -3.05111e-09 -2.18542e-09 -3.26023e-10 -9.02751e-11 -2.39981e-09 -1.41096e-09 
-1.46337e-09 -2.70385e-09 -3.6682e-09 -4.23572e-09 -4.70106e-09 -4.36056e-09 -4.64066e-09 -3.49614e-09 -4.27102e-09 
-1.80527e-09 9.63797e-10 -6.46233e-10 3.99189e-10 -2.49886e-09 -5.74656e-09 -3.3912e-09 -1.83328e-09 -1.35286e-08 
-1.39613e-08 -1.34728e-08 -1.28036e-08 -1.24914e-08 -1.21975e-08 -1.12952e-08 -1.14605e-08 -1.12414e-08 -1.14081e-08 
-1.16452e-08 -1.23279e-08 -1.18035e-08 -1.08636e-08 -8.77953e-09 -9.21011e-09 -9.84085e-09 -4.50926e-09 -4.07978e-09 
-5.4819e-09 -4.68922e-09 -4.58724e-09 -3.05142e-09 3.5867e-10 -2.79294e-10 9.08473e-11 1.66186e-09 1.81051e-09 
1.48201e-09 1.02129e-09 -1.14371e-09 -2.78303e-09 -1.55409e-09 -1.26075e-09 -2.73518e-09 -3.41741e-09 -4.95513e-09 
-5.32127e-09 -5.99663e-09 -7.1234e-09 -4.33389e-09 -4.44391e-09 -6.49015e-09 -6.65152e-09 -8.74812e-09 -9.44778e-09 
-1.08277e-08 -1.11118e-08 -6.80719e-09 -4.90747e-09 -5.99242e-09 -4.49662e-09 -5.10267e-09 -3.97404e-09 -1.76896e-09 
4.78072e-10 -7.39159e-10 1.3286e-09 2.45325e-09 -1.64001e-10 -1.31165e-09 1.2944e-09 -3.37589e-09 -4.5188e-09 
-2.01208e-09 -1.18551e-09 -8.89616e-11 -6.26153e-09 -8.10513e-09 -8.64077e-09 -1.23318e-08 -9.58257e-09 -5.93072e-09 
-6.29011e-09 -5.29236e-09 -4.60828e-09 -7.04106e-09 -6.0851e-09 -7.2572e-09 -8.03533e-09 -9.11692e-09 -8.33958e-09 
-4.85655e-09 -4.622e-09 -4.53878e-09 -4.39545e-09 -3.73507e-09 -4.8096e-09 -3.15685e-09 -1.50818e-09 -5.72893e-10 
-1.40004e-09 2.91891e-10 8.7351e-10 -8.63679e-10 2.80777e-10 -1.39569e-09 -2.32122e-09 8.18522e-10 7.80968e-10 
-2.77274e-10 2.89382e-10 -8.1324e-09 -4.61909e-09 -7.47809e-09 -8.95567e-09 -7.15841e-09 -5.94105e-09 -4.60408e-09 
-5.50005e-09 -4.48437e-09 -4.54432e-09 -5.93627e-09 -5.71238e-09 -4.96826e-09 -7.28836e-09 -3.70402e-09 -3.63621e-09 
-4.99843e-09 -3.43366e-09 -2.3272e-09 2.10884e-09 4.8105e-09 1.54465e-09 6.73599e-10 3.29112e-09 1.04104e-11 
2.09192e-09 1.87705e-10 3.84645e-10 -7.76655e-10 -4.86321e-09 -5.44249e-09 -4.379e-09 -3.49656e-09 -1.09971e-09 
-9.04144e-09 -8.1644e-09 -6.72938e-09 -9.40255e-09 -8.85954e-09 -7.71417e-09 -5.6586e-09 -5.36014e-09 -4.69505e-09 
-6.09449e-09 -5.41846e-09 -7.86025e-09 -7.39948e-09 -1.11008e-09 -7.33877e-09 -6.6131e-09 -5.59958e-09 -5.62276e-09 
-4.41798e-09 -1.60654e-09 -3.0771e-09 -2.04355e-09 -2.90574e-09 -2.72125e-09 -3.97912e-09 -3.37621e-09 -1.48141e-09 
-2.28196e-09 -2.38337e-09 -7.51845e-10 -4.13227e-11 5.57342e-10 1.41561e-09 -8.28917e-10 -1.60907e-09 -6.1498e-11 
2.21253e-09 -5.06979e-10 -1.27587e-09 -9.53646e-10 1.87094e-10 1.75184e-09 1.99077e-09 3.79001e-09 2.75459e-09 
3.01876e-09 2.81698e-09 3.63916e-09 3.34833e-09 1.4833e-09 1.60848e-09 2.40597e-09 1.34528e-09 8.23771e-10 
2.3718e-09 1.08165e-09 -6.7131e-10 1.0762e-09 -9.98223e-10 -2.32186e-09 -2.40423e-09 -1.26932e-09 -2.93862e-09 
-3.33337e-09 -3.54794e-09 -7.71857e-10 -3.2399e-09 -4.17129e-11 -2.26359e-09 -8.80455e-10 1.5332e-10 -2.09395e-11 
7.86718e-10 -1.39248e-09 -1.30396e-09 -1.3631e-09 -3.68836e-11 2.78684e-09 -2.7548e-10 4.21781e-09 3.02974e-09 
2.84232e-09 2.47157e-09 6.49361e-10 7.58299e-10 1.09182e-09 8.94351e-11 2.94985e-10 -1.34524e-09 -5.21901e-10 
-1.45216e-10 3.022e-10 -2.39711e-09 -3.43269e-09 -2.04911e-09 6.44214e-10 -1.34104e-09 -6.09141e-10 -5.98093e-10 
-1.70003e-10 1.60618e-09 2.91815e-09 1.77825e-10 1.49979e-09 1.69708e-09 1.7469e-09 2.58649e-09 5.38004e-10 
6.37641e-10 -4.01398e-10 -4.16281e-10 -4.10039e-10 -6.03052e-10 5.22663e-10 2.02731e-09 1.6047e-09 -3.075e-11 
1.25176e-09 -7.07017e-10 -6.25906e-10 -9.02495e-10 -5.80876e-11 -4.59282e-10 -1.99532e-09 -1.7671e-10 2.53726e-10 
-1.1625e-09 -1.48665e-09 -1.34317e-09 2.37546e-10 -1.36734e-09 1.52015e-10 5.9387e-10 -1.1128e-09 -4.55903e-10 
2.1885e-09 -9.56597e-10 -1.09235e-09 1.19616e-09 1.35474e-09 -1.46701e-10 2.40516e-10 5.53817e-10 6.56566e-10 
-5.14634e-10 -1.03287e-09 7.44095e-10 2.86637e-10 1.7035e-09 6.32952e-10 -2.06965e-10 1.47787e-09 -1.04504e-09 
-5.28976e-10 9.14662e-10 -4.50525e-10 -1.74801e-09 -1.50138e-09 -6.03062e-11 -1.36436e-09 -2.17347e-09 -1.54886e-09 
4.5424e-10 -9.29963e-10 -7.08823e-10 -4.72535e-10 -2.99328e-10 1.41024e-09 3.80736e-09 2.38397e-10 -7.64156e-10 
-5.18071e-11 -3.44311e-10 2.0417e-09 2.04136e-09 2.03511e-09 1.89789e-09 3.12489e-09 2.66409e-09 3.14746e-10 
1.05346e-09 1.35028e-09 1.90681e-09 2.53568e-09 2.76502e-09 3.53016e-09 1.97218e-09 1.00045e-09 1.27546e-09 
1.1972e-09 8.28625e-10 3.08733e-10 8.15742e-10 1.11746e-09 -1.26744e-10 8.2382e-10 8.04767e-10 -1.89225e-10 
1.04326e-09 2.52801e-09 6.7833e-10 1.21717e-09 4.99894e-09 1.33954e-09 3.40417e-10 -1.46857e-10 2.02877e-10 
-4.51546e-10 -2.09018e-10 1.68884e-09 1.51659e-09 1.75642e-09 2.08477e-09 1.40566e-09 1.12186e-09 2.03906e-09 
2.32207e-09 3.97419e-09 2.46482e-09 1.30499e-09 2.1623e-09 1.22715e-09 3.32326e-10 7.47164e-10 -6.92047e-11 
-1.89378e-09 -1.89078e-09 -1.32237e-09 -4.97713e-10 1.35083e-10 -9.44615e-10 -6.88118e-10 -5.01898e-11 1.12007e-09 
1.27115e-09 4.27007e-09 9.74138e-10 6.97954e-10 9.08949e-10 8.95568e-11 -3.55871e-10 -2.00713e-09 -2.12078e-09 
-1.96617e-10 -3.93017e-10 -4.44344e-10 6.02163e-11 -1.46903e-09 -1.50518e-09 -6.29937e-10 8.27748e-10 1.65612e-09 
1.01536e-09 4.10128e-10 4.91291e-10 8.95924e-11 6.84173e-10 1.85985e-09 -7.56356e-11 8.49399e-10 1.24798e-09 
2.16005e-09 1.62021e-09 1.61615e-09 2.09932e-09 3.20867e-09 1.42241e-09 1.30643e-09 2.9895e-09 2.74711e-09 
3.01359e-09 7.4309e-10 4.81598e-10 -1.60186e-09 -1.93038e-09 -3.03257e-09 -2.94423e-09 -1.47762e-09 -1.892e-09 
-2.47011e-09 -7.77624e-10 -1.93401e-09 -2.36442e-09 -1.02275e-09 -1.02697e-10 8.66215e-10 7.058e-10 1.41757e-10 
2.48202e-10 8.35168e-10 8.35723e-10 -9.0546e-10 -1.25503e-09 1.24557e-10 1.23812e-09 8.79045e-10 -6.20312e-10 