# vtk DataFile Version 5.1
vtk output
ASCII
DATASET POLYDATA
POINTS 200 float
1.44059 1.40941 -0.5 1.43776 1.41224 -0.5 1.43471 1.41529 -0.5 
1.43142 1.41858 -0.5 1.42789 1.42211 -0.5 1.4241 1.4259 -0.5 
1.42004 1.42997 -0.5 1.41567 1.43433 -0.5 1.41101 1.43899 -0.5 
1.41046 1.43954 -0.5 1.41101 1.43973 -0.50074 1.40601 1.44399 -0.5 
1.40068 1.44932 -0.5 1.39501 1.45499 -0.5 1.38896 1.46104 -0.5 
1.38255 1.46745 -0.5 1.37575 1.47425 -0.5 1.37334 1.47666 -0.5 
1.44059 1.41241 -0.503 1.43776 1.41524 -0.503 1.43471 1.41829 -0.503 
1.43142 1.42158 -0.503 1.4279 1.4251 -0.503 1.4241 1.4289 -0.503 
1.42004 1.43296 -0.503 1.41568 1.43732 -0.503 1.41269 1.44031 -0.503 
1.41102 1.44198 -0.503 1.40603 1.44697 -0.503 1.40071 1.45229 -0.503 
1.39504 1.45796 -0.503 1.389 1.464 -0.503 1.38259 1.47041 -0.503 
1.37579 1.47721 -0.503 1.37557 1.47743 -0.503 1.3758 1.47751 -0.50331 
1.44059 1.4155 -0.506095 1.43776 1.41833 -0.506095 1.43471 1.42139 -0.506095 
1.43142 1.42467 -0.506095 1.4279 1.4282 -0.506095 1.4241 1.43199 -0.506095 
1.42005 1.43605 -0.506095 1.41569 1.44041 -0.506095 1.41498 1.44111 -0.506095 
1.41569 1.44136 -0.50705 1.41103 1.44506 -0.506095 1.40604 1.45005 -0.506095 
1.40073 1.45536 -0.506095 1.39507 1.46103 -0.506095 1.38903 1.46706 -0.506095 
1.38263 1.47346 -0.506095 1.37787 1.47823 -0.506095 1.44059 1.41879 -0.509384 
1.43776 1.42162 -0.509384 1.43471 1.42468 -0.509384 1.43142 1.42796 -0.509384 
1.4279 1.43148 -0.509384 1.42411 1.43528 -0.509384 1.42005 1.43933 -0.509384 
1.41742 1.44196 -0.509384 1.42006 1.44287 -0.51293 1.4157 1.44369 -0.509384 
1.41104 1.44834 -0.509384 1.40607 1.45331 -0.509384 1.40076 1.45863 -0.509384 
1.39509 1.46429 -0.509384 1.38907 1.47031 -0.509384 1.38268 1.47671 -0.509384 
1.38031 1.47908 -0.509384 1.38272 1.47992 -0.51264 1.44059 1.42238 -0.512971 
1.43776 1.42521 -0.512971 1.43471 1.42826 -0.512971 1.43143 1.43155 -0.512971 
1.4279 1.43507 -0.512971 1.42411 1.43886 -0.512971 1.42009 1.44288 -0.512971 
1.42006 1.44291 -0.512971 1.41571 1.44726 -0.512971 1.41106 1.45191 -0.512971 
1.40609 1.45688 -0.512971 1.40078 1.46219 -0.512971 1.39513 1.46785 -0.512971 
1.38911 1.47386 -0.512971 1.38297 1.48001 -0.512971 1.44059 1.42638 -0.516969 
1.43776 1.42921 -0.516969 1.43471 1.43226 -0.516969 1.43143 1.43554 -0.516969 
1.42791 1.43906 -0.516969 1.42412 1.44285 -0.516969 1.42306 1.44391 -0.516969 
1.42412 1.44428 -0.5184 1.42007 1.4469 -0.516969 1.41572 1.45125 -0.516969 
1.41107 1.4559 -0.516969 1.40611 1.46086 -0.516969 1.40081 1.46616 -0.516969 
1.39516 1.47181 -0.516969 1.38915 1.47782 -0.516969 1.38594 1.48103 -0.516969 
1.3892 1.48216 -0.52136 1.44059 1.43092 -0.521506 1.43776 1.43375 -0.521506 
1.43471 1.4368 -0.521506 1.43143 1.44008 -0.521506 1.42791 1.4436 -0.521506 
1.42642 1.44508 -0.521506 1.42791 1.4456 -0.52351 1.42412 1.44738 -0.521506 
1.42008 1.45143 -0.521506 1.41574 1.45577 -0.521506 1.41109 1.46042 -0.521506 
1.40613 1.46537 -0.521506 1.40084 1.47066 -0.521506 1.3952 1.4763 -0.521506 
1.38931 1.4822 -0.521506 1.44059 1.43614 -0.526726 1.43776 1.43897 -0.526726 
1.43471 1.44202 -0.526726 1.43143 1.4453 -0.526726 1.43471 1.44796 -0.53267 
1.4303 1.44643 -0.526726 1.43143 1.44682 -0.52825 1.42791 1.44881 -0.526726 
1.42413 1.4526 -0.526726 1.42008 1.45664 -0.526726 1.41575 1.46098 -0.526726 
1.41111 1.46561 -0.526726 1.40616 1.47057 -0.526726 1.40088 1.47585 -0.526726 
1.39525 1.48148 -0.526726 1.39318 1.48354 -0.526726 1.39527 1.48427 -0.52954 
1.44059 1.4422 -0.532795 1.43776 1.44503 -0.532795 1.4348 1.44799 -0.532795 
1.43776 1.44902 -0.53678 1.43471 1.44809 -0.532795 1.43143 1.45136 -0.532795 
1.42792 1.45488 -0.532795 1.42414 1.45865 -0.532795 1.4201 1.4627 -0.532795 
1.41577 1.46703 -0.532795 1.41113 1.47166 -0.532795 1.40619 1.4766 -0.532795 
1.40092 1.48187 -0.532795 1.39769 1.48511 -0.532795 1.40095 1.48624 -0.53719 
1.44059 1.44931 -0.539904 1.44008 1.44982 -0.539904 1.44059 1.45 -0.54059 
1.43776 1.45214 -0.539904 1.43471 1.45519 -0.539904 1.43143 1.45847 -0.539904 
1.42792 1.46198 -0.539904 1.42415 1.46575 -0.539904 1.42011 1.4698 -0.539904 
1.41579 1.47412 -0.539904 1.41116 1.47874 -0.539904 1.40623 1.48368 -0.539904 
1.40296 1.48694 -0.539904 1.40625 1.48808 -0.54433 1.44059 1.45769 -0.548281 
1.43776 1.46052 -0.548281 1.43471 1.46357 -0.548281 1.43144 1.46684 -0.548281 
1.42792 1.47036 -0.548281 1.42416 1.47412 -0.548281 1.42012 1.47816 -0.548281 
1.41581 1.48247 -0.548281 1.41119 1.48709 -0.548281 1.41583 1.49141 -0.55724 
1.40918 1.4891 -0.548281 1.4112 1.4898 -0.551 1.44059 1.4676 -0.55819 
1.43776 1.47043 -0.55819 1.43471 1.47348 -0.55819 1.43144 1.47675 -0.55819 
1.42793 1.48026 -0.55819 1.42417 1.48402 -0.55819 1.42014 1.48805 -0.55819 
1.42418 1.49431 -0.56849 1.41654 1.49165 -0.55819 1.42015 1.49291 -0.56306 
1.44059 1.47936 -0.569947 1.43776 1.48219 -0.569947 1.43471 1.48524 -0.569947 
1.43145 1.4885 -0.569947 1.42794 1.49201 -0.569947 1.43471 1.49796 -0.58267 
1.43145 1.49683 -0.57828 1.42526 1.49468 -0.569947 1.42794 1.49561 -0.57355 
1.44059 1.49333 -0.583924 1.43776 1.49616 -0.583924 1.44059 1.5 -0.59059 
1.43564 1.49828 -0.583924 1.43776 1.49902 -0.58678 
POLYGONS 340 1017
OFFSETS vtktypeint64
0 3 6 9 12 15 18 21 24 
27 30 33 36 39 42 45 48 51 
54 57 60 63 66 69 72 75 78 
81 84 87 90 93 96 99 102 105 
108 111 114 117 120 123 126 129 132 
135 138 141 144 147 150 153 156 159 
162 165 168 171 174 177 180 183 186 
189 192 195 198 201 204 207 210 213 
216 219 222 225 228 231 234 237 240 
243 246 249 252 255 258 261 264 267 
270 273 276 279 282 285 288 291 294 
297 300 303 306 309 312 315 318 321 
324 327 330 333 336 339 342 345 348 
351 354 357 360 363 366 369 372 375 
378 381 384 387 390 393 396 399 402 
405 408 411 414 417 420 423 426 429 
432 435 438 441 444 447 450 453 456 
459 462 465 468 471 474 477 480 483 
486 489 492 495 498 501 504 507 510 
513 516 519 522 525 528 531 534 537 
540 543 546 549 552 555 558 561 564 
567 570 573 576 579 582 585 588 591 
594 597 600 603 606 609 612 615 618 
621 624 627 630 633 636 639 642 645 
648 651 654 657 660 663 666 669 672 
675 678 681 684 687 690 693 696 699 
702 705 708 711 714 717 720 723 726 
729 732 735 738 741 744 747 750 753 
756 759 762 765 768 771 774 777 780 
783 786 789 792 795 798 801 804 807 
810 813 816 819 822 825 828 831 834 
837 840 843 846 849 852 855 858 861 
864 867 870 873 876 879 882 885 888 
891 894 897 900 903 906 909 912 915 
918 921 924 927 930 933 936 939 942 
945 948 951 954 957 960 963 966 969 
972 975 978 981 984 987 990 993 996 
999 1002 1005 1008 1011 1014 1017 
CONNECTIVITY vtktypeint64
1 19 0 0 19 18 2 20 1 
1 20 19 3 21 2 2 21 20 
4 22 3 3 22 21 5 23 4 
4 23 22 6 24 5 5 24 23 
7 25 6 6 25 24 10 26 25 
10 25 8 8 25 7 8 9 10 
10 27 26 9 27 10 9 11 27 
11 28 27 12 29 11 11 29 28 
13 30 12 12 30 29 14 31 13 
13 31 30 15 32 14 14 32 31 
16 33 15 15 33 32 33 16 17 
34 33 17 19 37 18 18 37 36 
20 38 19 19 38 37 21 39 20 
20 39 38 22 40 21 21 40 39 
23 41 22 22 41 40 24 42 23 
23 42 41 25 43 24 24 43 42 
43 25 26 44 43 26 26 46 44 
27 46 26 28 47 27 27 47 46 
29 48 28 28 48 47 30 49 29 
29 49 48 31 50 30 30 50 49 
32 51 31 31 51 50 35 52 51 
35 51 33 33 51 32 33 34 35 
37 54 36 36 54 53 38 55 37 
37 55 54 39 56 38 38 56 55 
40 57 39 39 57 56 41 58 40 
40 58 57 42 59 41 41 59 58 
45 60 59 45 59 43 43 59 42 
43 44 45 45 62 60 44 62 45 
44 46 62 46 63 62 47 64 46 
46 64 63 48 65 47 47 65 64 
49 66 48 48 66 65 50 67 49 
49 67 66 51 68 50 50 68 67 
68 51 52 69 68 52 54 72 53 
53 72 71 55 73 54 54 73 72 
56 74 55 55 74 73 57 75 56 
56 75 74 58 76 57 57 76 75 
61 77 76 61 76 59 59 76 58 
59 60 61 61 78 77 60 78 61 
60 62 78 62 79 78 63 80 62 
62 80 79 64 81 63 63 81 80 
65 82 64 64 82 81 66 83 65 
65 83 82 67 84 66 66 84 83 
70 85 84 70 84 68 68 84 67 
68 69 70 72 87 71 71 87 86 
73 88 72 72 88 87 74 89 73 
73 89 88 75 90 74 74 90 89 
76 91 75 75 91 90 91 76 77 
92 91 77 77 94 92 78 94 77 
79 95 78 78 95 94 80 96 79 
79 96 95 81 97 80 80 97 96 
82 98 81 81 98 97 83 99 82 
82 99 98 84 100 83 83 100 99 
100 84 85 101 100 85 87 104 86 
86 104 103 88 105 87 87 105 104 
89 106 88 88 106 105 90 107 89 
89 107 106 93 108 107 93 107 91 
91 107 90 91 92 93 93 110 108 
92 110 93 92 94 110 94 111 110 
95 112 94 94 112 111 96 113 95 
95 113 112 97 114 96 96 114 113 
98 115 97 97 115 114 99 116 98 
98 116 115 102 117 116 102 116 100 
100 116 99 100 101 102 104 119 103 
103 119 118 105 120 104 104 120 119 
106 121 105 105 121 120 109 123 121 
109 121 107 107 121 106 107 108 109 
109 125 123 108 125 109 108 110 125 
110 126 125 111 127 110 110 127 126 
112 128 111 111 128 127 113 129 112 
112 129 128 114 130 113 113 130 129 
115 131 114 114 131 130 116 132 115 
115 132 131 132 116 117 133 132 117 
119 136 118 118 136 135 122 137 136 
122 136 120 120 136 119 120 121 124 
122 120 124 121 123 124 122 139 137 
124 139 122 140 139 124 123 140 124 
123 125 140 125 141 140 126 142 125 
125 142 141 127 143 126 126 143 142 
128 144 127 127 144 143 129 145 128 
128 145 144 130 146 129 129 146 145 
131 147 130 130 147 146 134 148 147 
134 147 132 132 147 131 132 133 134 
138 151 150 138 150 136 136 150 135 
136 137 138 138 153 151 137 153 138 
137 139 153 139 154 153 140 155 139 
139 155 154 141 156 140 140 156 155 
142 157 141 141 157 156 143 158 142 
142 158 157 144 159 143 143 159 158 
145 160 144 144 160 159 146 161 145 
145 161 160 149 162 161 149 161 147 
147 161 146 147 148 149 150 151 152 
151 164 152 151 153 164 153 165 164 
154 166 153 153 166 165 155 167 154 
154 167 166 156 168 155 155 168 167 
157 169 156 156 169 168 158 170 157 
157 170 169 159 171 158 158 171 170 
160 172 159 159 172 171 163 174 172 
163 172 161 161 172 160 161 162 163 
165 177 164 164 177 176 166 178 165 
165 178 177 167 179 166 166 179 178 
168 180 167 167 180 179 169 181 168 
168 181 180 170 182 169 169 182 181 
173 184 182 173 182 171 171 182 170 
171 172 175 173 171 175 172 174 175 
177 187 176 176 187 186 178 188 177 
177 188 187 179 189 178 178 189 188 
180 190 179 179 190 189 183 193 190 
183 190 181 181 190 180 181 182 185 
183 181 185 182 184 185 187 196 186 
186 196 195 191 198 196 191 196 188 
188 196 187 188 189 192 191 188 192 
189 190 194 192 189 194 190 193 194 
195 196 199 197 195 199 196 198 199 

POINT_DATA 200
FIELD FieldData 5
pressure 1 200 float
0.178573 0.178573 0.178573 0.178573 0.178573 0.178573 0.178573 0.178573 0.178573 
0.178573 0.178573 0.178573 0.178573 0.178573 0.178573 0.178573 0.178573 0.178573 
0.178573 0.178573 0.178573 0.178573 0.178573 0.178573 0.178573 0.178573 0.178573 
0.178573 0.178573 0.178573 0.178573 0.178573 0.178573 0.178573 0.178573 0.178573 
0.178573 0.178573 0.178573 0.178573 0.178573 0.178573 0.178573 0.178573 0.178573 
0.178573 0.178573 0.178573 0.178573 0.178573 0.178573 0.178573 0.178573 0.178573 
0.178573 0.178573 0.178573 0.178573 0.178573 0.178573 0.178573 0.178573 0.178573 
0.178573 0.178573 0.178573 0.178573 0.178573 0.178573 0.178573 0.178573 0.178573 
0.178573 0.178573 0.178573 0.178573 0.178573 0.178573 0.178573 0.178573 0.178573 
0.178573 0.178573 0.178573 0.178573 0.178573 0.178573 0.178573 0.178573 0.178573 
0.178573 0.178573 0.178573 0.178573 0.178573 0.178573 0.178573 0.178573 0.178573 
0.178573 0.178573 0.178573 0.178573 0.178573 0.178573 0.178573 0.178573 0.178573 
0.178573 0.178573 0.178573 0.178573 0.178573 0.178573 0.178573 0.178573 0.178573 
0.178573 0.178573 0.178573 0.178573 0.178573 0.178573 0.178573 0.178573 0.178573 
0.178573 0.178573 0.178573 0.178573 0.178573 0.178573 0.178573 0.178573 0.178573 
0.178573 0.178573 0.178573 0.178573 0.178573 0.178573 0.178573 0.178573 0.178573 
0.178573 0.178573 0.178573 0.178573 0.178573 0.178573 0.178573 0.178573 0.178573 
0.178573 0.178573 0.178573 0.178573 0.178573 0.178573 0.178573 0.178573 0.178573 
0.178573 0.178573 0.178573 0.178573 0.178573 0.178573 0.178573 0.178573 0.178573 
0.178573 0.178573 0.178573 0.178573 0.178573 0.178573 0.178573 0.178573 0.178573 
0.178573 0.178573 0.178573 0.178573 0.178573 0.178573 0.178573 0.178573 0.178573 
0.178573 0.178573 0.178573 0.178573 0.178573 0.178573 0.178573 0.178573 0.178573 
0.178573 0.178573 
velocity_u 1 200 float
1 1 1 1 1 1 1 1 1 
1 1 1 1 1 1 1 1 1 
1 1 1 1 1 1 1 1 1 
1 1 1 1 1 1 1 1 1 
1 1 1 1 1 1 1 1 1 
1 1 1 1 1 1 1 1 1 
1 1 1 1 1 1 1 1 1 
1 1 1 1 1 1 1 1 1 
1 1 1 1 1 1 1 1 1 
1 1 1 1 1 1 1 1 1 
1 1 1 1 1 1 1 1 1 
1 1 1 1 1 1 1 1 1 
1 1 1 1 1 1 1 1 1 
1 1 1 1 1 1 1 1 1 
1 1 1 1 1 1 1 1 1 
1 1 1 1 1 1 1 1 1 
1 1 1 1 1 1 1 1 1 
1 1 1 1 1 1 1 1 1 
1 1 1 1 1 1 1 1 1 
1 1 1 1 1 1 1 1 1 
1 1 1 1 1 1 1 1 1 
1 1 1 1 1 1 1 1 1 
1 1 
velocity_v 1 200 float
-3.42629e-08 -4.97047e-08 -5.33764e-08 -5.66179e-08 -5.98423e-08 -6.01161e-08 -5.96022e-08 -5.69423e-08 -5.99156e-08 
-5.99595e-08 -5.75301e-08 -5.59533e-08 -5.25966e-08 -5.22487e-08 -5.25456e-08 -4.71352e-08 -4.38004e-08 -4.30136e-08 
-3.12432e-08 -5.01271e-08 -5.27847e-08 -5.42237e-08 -5.45857e-08 -5.27958e-08 -5.04529e-08 -5.17911e-08 -5.04665e-08 
-4.93962e-08 -5.03527e-08 -5.15892e-08 -5.21719e-08 -4.80231e-08 -5.14454e-08 -5.46237e-08 -5.4726e-08 -5.48823e-08 
-3.75497e-08 -5.14168e-08 -5.44288e-08 -5.608e-08 -5.57184e-08 -5.4147e-08 -5.31908e-08 -5.19742e-08 -5.23152e-08 
-5.22485e-08 -5.36178e-08 -5.37531e-08 -5.473e-08 -5.24585e-08 -5.17253e-08 -5.73381e-08 -5.71655e-08 -4.03507e-08 
-4.83036e-08 -5.2243e-08 -5.11026e-08 -5.26563e-08 -5.14028e-08 -5.14505e-08 -5.22517e-08 -5.29845e-08 -5.23162e-08 
-5.09841e-08 -5.49636e-08 -5.12656e-08 -5.05825e-08 -4.80117e-08 -5.04923e-08 -5.23719e-08 -3.99391e-08 -3.98552e-08 
-4.2756e-08 -4.65761e-08 -4.94521e-08 -5.00514e-08 -5.2626e-08 -5.30028e-08 -5.29876e-08 -4.89521e-08 -5.22354e-08 
-4.74261e-08 -4.37363e-08 -4.34138e-08 -3.91823e-08 -3.8822e-08 -4.37648e-08 -4.5439e-08 -4.64252e-08 -4.94127e-08 
-5.00988e-08 -5.30627e-08 -5.47312e-08 -5.23798e-08 -5.78824e-08 -5.5738e-08 -4.77669e-08 -4.62244e-08 -4.74044e-08 
-5.0269e-08 -5.24614e-08 -5.51855e-08 -4.33671e-08 -4.49067e-08 -4.19005e-08 -4.19672e-08 -4.28955e-08 -4.5257e-08 
-4.72862e-08 -4.81518e-08 -4.95819e-08 -4.57745e-08 -4.57375e-08 -4.44453e-08 -3.96998e-08 -4.04606e-08 -4.37911e-08 
-4.30437e-08 -5.23573e-08 -5.09501e-08 -4.2361e-08 -4.19035e-08 -3.91447e-08 -4.54209e-08 -4.29926e-08 -5.22165e-08 
-4.85726e-08 -4.26651e-08 -4.07628e-08 -4.50076e-08 -4.68882e-08 -4.88513e-08 -6.01193e-08 -5.98426e-08 -5.61444e-08 
-5.2444e-08 -4.61519e-08 -3.93159e-08 -4.53753e-08 -3.90698e-08 -4.56969e-08 -4.09591e-08 -4.12285e-08 -4.01233e-08 
-3.99722e-08 -4.09578e-08 -4.43543e-08 -4.6102e-08 -4.82918e-08 -4.51419e-08 -5.11121e-08 -5.00282e-08 -5.18672e-08 
-4.40441e-08 -4.31265e-08 -4.40383e-08 -4.28335e-08 -4.17818e-08 -4.28927e-08 -4.75214e-08 -4.63785e-08 -5.32102e-08 
-4.87332e-08 -3.86232e-08 -5.31654e-08 -4.23131e-08 -3.95391e-08 -3.89758e-08 -3.21259e-08 -3.57036e-08 -3.33574e-08 
-2.80789e-08 -2.78012e-08 -4.47338e-08 -2.6221e-08 -3.48002e-08 -4.71333e-08 -4.16508e-08 -3.66004e-08 -4.31794e-08 
-4.09578e-08 -4.85982e-08 -4.69362e-08 -3.96988e-08 -4.70505e-08 -4.55331e-08 -2.59501e-08 -3.25512e-08 -2.33284e-08 
-2.40209e-08 -3.84941e-08 -1.6692e-08 -2.49116e-08 -3.78919e-08 -3.61708e-08 -1.1721e-08 -2.35199e-08 -1.49916e-08 
-1.85015e-08 -2.21869e-08 
velocity_w 1 200 float
-9.45922e-08 -2.70843e-08 -5.02524e-08 -4.61152e-08 -6.17418e-08 -2.22044e-08 -7.13995e-08 -4.5533e-08 -4.19581e-08 
-3.8994e-08 -4.18903e-08 -1.09707e-08 -2.18819e-08 3.78831e-09 2.86099e-08 -3.4718e-08 -1.01597e-07 -1.01287e-07 
-8.86319e-08 -7.00091e-08 -7.07076e-08 -7.45054e-08 -3.09496e-08 -8.10916e-09 -4.27284e-08 -7.75596e-08 -5.5705e-08 
-3.95144e-08 -1.29961e-08 -3.3248e-08 -1.78259e-08 1.56782e-08 3.18131e-08 -4.1046e-08 -4.23112e-08 -3.48577e-08 
-6.53666e-08 -1.03196e-07 -6.94841e-08 -6.75795e-08 -3.79513e-08 -5.21239e-08 -2.95865e-08 -5.84777e-08 -5.22548e-08 
-4.16579e-08 -1.50512e-08 -7.23157e-08 -2.78215e-08 -2.34609e-08 -5.50809e-08 1.91171e-08 2.09411e-08 -3.30937e-08 
-1.00844e-07 -3.71285e-08 -4.2371e-08 -6.53503e-08 -4.61295e-08 -3.93607e-08 -1.62033e-08 -8.39232e-08 4.03724e-09 
-5.62378e-08 -8.62628e-08 -5.47131e-08 -4.51681e-08 -5.88269e-08 3.00415e-08 3.67293e-08 1.72174e-09 -7.24212e-08 
-3.67727e-08 -9.19608e-09 -2.51104e-08 -3.31009e-08 -6.89514e-08 -8.43445e-08 -8.43198e-08 -9.80794e-08 -4.704e-08 
1.65276e-09 -3.23439e-08 -4.61695e-08 -4.97375e-08 -3.11204e-09 -9.85337e-08 -1.31248e-08 1.25098e-08 -2.86957e-08 
-1.90962e-08 -4.62776e-08 -5.29527e-08 -4.40762e-08 -6.6747e-08 -1.15865e-07 -8.14697e-08 -2.90399e-08 9.3811e-09 
-4.08375e-08 -4.22841e-08 -4.95459e-08 -7.28204e-08 -4.03007e-09 -9.73442e-08 -6.14941e-08 -4.56727e-08 -5.83209e-08 
-5.04401e-08 -5.63496e-08 -3.81721e-08 -1.56763e-08 -2.54452e-10 -1.16721e-08 -4.63916e-08 -8.80116e-09 -2.40656e-08 
-7.30657e-08 -4.20225e-08 -1.23361e-07 -1.20458e-07 -8.38957e-08 -3.77493e-09 -7.45658e-08 -6.60615e-08 -5.40532e-08 
-3.59163e-08 3.17973e-10 2.34356e-08 1.15631e-08 -1.51388e-08 -6.53912e-08 -7.24927e-09 -1.31492e-08 -3.1392e-08 
-3.52346e-10 -3.10989e-09 -1.24332e-09 -2.51181e-08 -1.12174e-09 -3.59388e-09 -3.45714e-08 -2.58935e-09 -5.69117e-08 
-5.52718e-08 -7.35092e-08 -5.31052e-08 -6.2984e-08 -6.42052e-08 -6.8051e-08 -1.72083e-08 -2.16265e-08 -2.03991e-08 
-3.75346e-08 -5.48333e-08 -6.23598e-08 -4.89782e-08 -6.39008e-08 -5.60923e-08 -8.61732e-08 -7.21545e-08 -5.93999e-08 
-6.67537e-08 -8.59783e-08 -4.26544e-08 -7.30636e-08 -7.4489e-08 -7.8741e-08 -5.94858e-08 -6.44948e-08 -5.55566e-08 
-6.72984e-08 -9.15702e-08 -3.23207e-08 -9.84136e-08 -8.06391e-08 8.17121e-09 -2.06373e-08 -1.16434e-08 -1.03306e-08 
-2.98748e-08 -2.51686e-08 -3.83389e-08 -1.37674e-08 -2.93026e-08 -1.68794e-08 -2.45579e-08 -3.70831e-08 -1.85831e-08 
-1.40338e-08 -2.03392e-08 -1.92072e-08 -2.55757e-08 -1.53346e-08 -2.17587e-08 -3.37668e-08 -9.24803e-09 -5.07925e-08 
-1.55993e-08 -1.85536e-08 
temperature 1 200 float
0.178573 0.178573 0.178573 0.178573 0.178573 0.178573 0.178573 0.178573 0.178573 
0.178573 0.178573 0.178573 0.178573 0.178573 0.178573 0.178573 0.178573 0.178573 
0.178573 0.178573 0.178573 0.178573 0.178573 0.178573 0.178573 0.178573 0.178573 
0.178573 0.178573 0.178573 0.178573 0.178573 0.178573 0.178573 0.178573 0.178573 
0.178573 0.178573 0.178573 0.178573 0.178573 0.178573 0.178573 0.178573 0.178573 
0.178573 0.178573 0.178573 0.178573 0.178573 0.178573 0.178573 0.178573 0.178573 
0.178573 0.178573 0.178573 0.178573 0.178573 0.178573 0.178573 0.178573 0.178573 
0.178573 0.178573 0.178573 0.178573 0.178573 0.178573 0.178573 0.178573 0.178573 
0.178573 0.178573 0.178573 0.178573 0.178573 0.178573 0.178573 0.178573 0.178573 
0.178573 0.178573 0.178573 0.178573 0.178573 0.178573 0.178573 0.178573 0.178573 
0.178573 0.178573 0.178573 0.178573 0.178573 0.178573 0.178573 0.178573 0.178573 
0.178573 0.178573 0.178573 0.178573 0.178573 0.178573 0.178573 0.178573 0.178573 
0.178573 0.178573 0.178573 0.178573 0.178573 0.178573 0.178573 0.178573 0.178573 
0.178573 0.178573 0.178573 0.178573 0.178573 0.178573 0.178573 0.178573 0.178573 
0.178573 0.178573 0.178573 0.178573 0.178573 0.178573 0.178573 0.178573 0.178573 
0.178573 0.178573 0.178573 0.178573 0.178573 0.178573 0.178573 0.178573 0.178573 
0.178573 0.178573 0.178573 0.178573 0.178573 0.178573 0.178573 0.178573 0.178573 
0.178573 0.178573 0.178573 0.178573 0.178573 0.178573 0.178573 0.178573 0.178573 
0.178573 0.178573 0.178573 0.178573 0.178573 0.178573 0.178573 0.178573 0.178573 
0.178573 0.178573 0.178573 0.178573 0.178573 0.178573 0.178573 0.178573 0.178573 
0.178573 0.178573 0.178573 0.178573 0.178573 0.178573 0.178573 0.178573 0.178573 
0.178573 0.178573 0.178573 0.178573 0.178573 0.178573 0.178573 0.178573 0.178573 
0.178573 0.178573 
