# vtk DataFile Version 5.1
vtk output
ASCII
DATASET STRUCTURED_GRID
DIMENSIONS 30 21 55
POINTS 34650 float
0.47219 0.0454667 0.5 0.471344 0.048345 0.5 0.470389 0.0515943 0.5 
0.469315 0.0552501 0.5 0.46811 0.0593475 0.5 0.466766 0.0639206 0.5 
0.465274 0.0690002 0.5 0.463624 0.0746127 0.5 0.461812 0.080778 0.5 
0.459834 0.0875074 0.5 0.457691 0.0948012 0.5 0.455385 0.102647 0.5 
0.452924 0.111019 0.5 0.450322 0.119874 0.5 0.447594 0.129154 0.5 
0.444763 0.138788 0.5 0.441853 0.148689 0.5 0.438893 0.15876 0.5 
0.435913 0.168898 0.5 0.432945 0.178998 0.5 0.430019 0.188953 0.5 
0.427165 0.198666 0.5 0.424407 0.208047 0.5 0.42177 0.21702 0.5 
0.419271 0.225524 0.5 0.416923 0.233511 0.5 0.414737 0.240952 0.5 
0.412715 0.247831 0.5 0.41086 0.254144 0.5 0.409168 0.259901 0.5 
0.49181 0.0493446 0.5 0.490954 0.0522144 0.5 0.489984 0.0554661 0.5 
0.488889 0.0591388 0.5 0.487658 0.0632723 0.5 0.486279 0.0679056 0.5 
0.484741 0.0730752 0.5 0.483034 0.0788134 0.5 0.481153 0.0851461 0.5 
0.479091 0.0920897 0.5 0.476848 0.0996487 0.5 0.474426 0.107813 0.5 
0.471835 0.116554 0.5 0.469087 0.125828 0.5 0.466203 0.135566 0.5 
0.463205 0.145687 0.5 0.460124 0.156088 0.5 0.456993 0.166658 0.5 
0.453847 0.177278 0.5 0.45072 0.187825 0.5 0.447648 0.198184 0.5 
0.444661 0.208248 0.5 0.441788 0.217923 0.5 0.439052 0.227132 0.5 
0.436469 0.235817 0.5 0.434053 0.243935 0.5 0.431812 0.251463 0.5 
0.429747 0.258391 0.5 0.427859 0.264724 0.5 0.426143 0.270476 0.5 
0.5115 0.053236 0.5 0.510638 0.0561007 0.5 0.50966 0.0593585 0.5 
0.508551 0.0630523 0.5 0.5073 0.0672265 0.5 0.505894 0.0719249 0.5 
0.50432 0.07719 0.5 0.502567 0.0830602 0.5 0.500626 0.089567 0.5 
0.498492 0.0967324 0.5 0.496161 0.104565 0.5 0.493638 0.113057 0.5 
0.490929 0.122179 0.5 0.48805 0.131882 0.5 0.485022 0.142091 0.5 
0.481873 0.152711 0.5 0.478637 0.163628 0.5 0.47535 0.174711 0.5 
0.472052 0.185826 0.5 0.468782 0.196837 0.5 0.465579 0.207613 0.5 
0.462477 0.218041 0.5 0.459503 0.228022 0.5 0.456683 0.237478 0.5 
0.454032 0.246353 0.5 0.451562 0.25461 0.5 0.44928 0.262231 0.5 
0.447186 0.269214 0.5 0.445278 0.275569 0.5 0.443549 0.281319 0.5 
0.531251 0.0571397 0.5 0.530389 0.0600022 0.5 0.529407 0.0632693 0.5 
0.528291 0.0669879 0.5 0.527027 0.0712067 0.5 0.525601 0.0759749 0.5 
0.523999 0.0813406 0.5 0.522208 0.0873482 0.5 0.520218 0.0940355 0.5 
0.518022 0.10143 0.5 0.515616 0.109544 0.5 0.513001 0.118371 0.5 
0.510188 0.127884 0.5 0.50719 0.138027 0.5 0.504033 0.148718 0.5 
0.500747 0.159851 0.5 0.497369 0.171296 0.5 0.493941 0.182906 0.5 
0.490507 0.194531 0.5 0.487109 0.206017 0.5 0.48379 0.217225 0.5 
0.480586 0.228029 0.5 0.477527 0.238327 0.5 0.474636 0.24804 0.5 
0.47193 0.257114 0.5 0.46942 0.265516 0.5 0.46711 0.273236 0.5 
0.464998 0.280277 0.5 0.463081 0.286659 0.5 0.461351 0.292409 0.5 
0.551056 0.061054 0.5 0.550198 0.0639169 0.5 0.549217 0.0671962 0.5 
0.548099 0.0709427 0.5 0.546828 0.0752096 0.5 0.545389 0.0800516 0.5 
0.543766 0.0855224 0.5 0.541945 0.0916725 0.5 0.539915 0.0985458 0.5 
0.537666 0.106175 0.5 0.535194 0.114578 0.5 0.5325 0.123749 0.5 
0.529593 0.133661 0.5 0.52649 0.144254 0.5 0.523217 0.155438 0.5 
0.519807 0.167094 0.5 0.5163 0.179079 0.5 0.512745 0.191229 0.5 
0.509187 0.203376 0.5 0.505676 0.215351 0.5 0.502254 0.227001 0.5 
0.498962 0.238193 0.5 0.495829 0.248818 0.5 0.492881 0.258796 0.5 
0.490133 0.268076 0.5 0.487594 0.27663 0.5 0.485266 0.284454 0.5 
0.483148 0.291557 0.5 0.481231 0.297968 0.5 0.479508 0.303721 0.5 
0.570908 0.0649776 0.5 0.570057 0.0678428 0.5 0.569081 0.0711367 0.5 
0.567965 0.0749138 0.5 0.566692 0.079232 0.5 0.565245 0.0841511 0.5 
0.563608 0.0897308 0.5 0.561764 0.0960278 0.5 0.559701 0.103092 0.5 
0.557408 0.110962 0.5 0.55488 0.119659 0.5 0.552116 0.129182 0.5 
0.549127 0.139501 0.5 0.545929 0.150552 0.5 0.542551 0.162238 0.5 
0.539028 0.174429 0.5 0.535406 0.186964 0.5 0.531735 0.199665 0.5 
0.528067 0.212344 0.5 0.524454 0.22482 0.5 0.520942 0.236923 0.5 
0.517573 0.248512 0.5 0.514379 0.259472 0.5 0.511385 0.269724 0.5 
0.508604 0.279217 0.5 0.506046 0.287928 0.5 0.503711 0.295859 0.5 
0.501594 0.303029 0.5 0.499687 0.309471 0.5 0.497978 0.315227 0.5 
0.590798 0.0689088 0.5 0.589957 0.0717781 0.5 0.58899 0.0750885 0.5 
0.587879 0.0788983 0.5 0.586608 0.0832702 0.5 0.585158 0.0882693 0.5 
0.583511 0.0939612 0.5 0.581651 0.100409 0.5 0.579562 0.107668 0.5 
0.577232 0.115784 0.5 0.574655 0.124781 0.5 0.57183 0.134661 0.5 
0.568767 0.145393 0.5 0.565484 0.15691 0.5 0.562011 0.169107 0.5 
0.558388 0.18184 0.5 0.554661 0.194936 0.5 0.550886 0.208197 0.5 
0.547118 0.221419 0.5 0.543414 0.234404 0.5 0.539822 0.246969 0.5 
0.536387 0.258963 0.5 0.533141 0.270267 0.5 0.53011 0.280798 0.5 
0.527306 0.290509 0.5 0.524737 0.299382 0.5 0.522402 0.307424 0.5 
0.520293 0.314662 0.5 0.518402 0.321137 0.5 0.516714 0.326899 0.5 
0.61072 0.0728462 0.5 0.609891 0.0757209 0.5 0.608934 0.0790491 0.5 
0.607831 0.0828934 0.5 0.606565 0.0873209 0.5 0.605116 0.0924023 0.5 
0.603464 0.0982089 0.5 0.601592 0.10481 0.5 0.599481 0.112268 0.5 
0.597121 0.120633 0.5 0.594501 0.129935 0.5 0.591622 0.140177 0.5 
0.588494 0.151328 0.5 0.585135 0.163318 0.5 0.581576 0.176032 0.5 
0.577859 0.189315 0.5 0.574037 0.202978 0.5 0.570167 0.216808 0.5 
0.566309 0.230581 0.5 0.562522 0.244082 0.5 0.55886 0.257117 0.5 
0.555367 0.269523 0.5 0.552078 0.281176 0.5 0.549017 0.291993 0.5 
0.546197 0.301926 0.5 0.543624 0.310964 0.5 0.541294 0.31912 0.5 
0.5392 0.326428 0.5 0.537329 0.332938 0.5 0.535666 0.338706 0.5 
0.630665 0.0767882 0.5 0.62985 0.0796691 0.5 0.628905 0.0830161 0.5 
0.627812 0.086896 0.5 0.626553 0.0913807 0.5 0.625107 0.0965459 0.5 
0.623453 0.102469 0.5 0.621572 0.109226 0.5 0.619444 0.116885 0.5 
0.617057 0.125503 0.5 0.6144 0.135112 0.5 0.611473 0.145721 0.5 
0.608285 0.157296 0.5 0.604856 0.169763 0.5 0.601218 0.182999 0.5 
0.597417 0.196838 0.5 0.593506 0.211075 0.5 0.589549 0.225479 0.5 
0.585608 0.239809 0.5 0.581746 0.253833 0.5 0.57802 0.267343 0.5 
0.574476 0.280166 0.5 0.571149 0.292173 0.5 0.568064 0.303278 0.5 
0.565233 0.313437 0.5 0.56266 0.322643 0.5 0.560341 0.330915 0.5 
0.558265 0.338295 0.5 0.556418 0.344841 0.5 0.554783 0.350615 0.5 
0.650626 0.0807333 0.5 0.649825 0.0836208 0.5 0.648892 0.0869873 0.5 
0.647811 0.0909035 0.5 0.646561 0.095446 0.5 0.645119 0.100696 0.5 
0.643465 0.106737 0.5 0.641577 0.113651 0.5 0.639435 0.121514 0.5 
0.637024 0.130385 0.5 0.634334 0.140305 0.5 0.631363 0.151282 0.5 
0.628119 0.163284 0.5 0.624624 0.176231 0.5 0.620913 0.189994 0.5 
0.617031 0.204393 0.5 0.613038 0.219208 0.5 0.608999 0.234191 0.5 
0.60498 0.249082 0.5 0.601049 0.263633 0.5 0.597263 0.277622 0.5 
0.593672 0.290866 0.5 0.590312 0.30323 0.5 0.587207 0.314626 0.5 
0.584369 0.325013 0.5 0.581799 0.334388 0.5 0.579493 0.342777 0.5 
0.577437 0.35023 0.5 0.575615 0.356812 0.5 0.57401 0.362593 0.5 
0.670595 0.08468 0.5 0.669807 0.0875741 0.5 0.668888 0.0909603 0.5 
0.667819 0.094913 0.5 0.666577 0.0995136 0.5 0.665141 0.104849 0.5 
0.663487 0.111009 0.5 0.661593 0.11808 0.5 0.659439 0.126146 0.5 
0.657005 0.135273 0.5 0.654283 0.145505 0.5 0.65127 0.156853 0.5 
0.647973 0.169283 0.5 0.644416 0.182713 0.5 0.640633 0.197004 0.5 
0.636675 0.211965 0.5 0.632603 0.22736 0.5 0.628484 0.242924 0.5 
0.624391 0.258378 0.5 0.620393 0.273459 0.5 0.616552 0.287929 0.5 
0.612916 0.301596 0.5 0.609525 0.314318 0.5 0.606401 0.326006 0.5 
0.603557 0.336622 0.5 0.600992 0.346166 0.5 0.598699 0.354674 0.5 
0.596664 0.3622 0.5 0.594868 0.368818 0.5 0.593293 0.374606 0.5 
0.690564 0.0886267 0.5 0.68979 0.0915273 0.5 0.688884 0.0949327 0.5 
0.687825 0.0989217 0.5 0.686592 0.10358 0.5 0.685161 0.109001 0.5 
0.683507 0.115279 0.5 0.681607 0.122508 0.5 0.679439 0.130778 0.5 
0.676984 0.14016 0.5 0.67423 0.150704 0.5 0.671175 0.162422 0.5 
0.667826 0.175281 0.5 0.664206 0.189193 0.5 0.660354 0.204013 0.5 
0.65632 0.219537 0.5 0.652168 0.235513 0.5 0.647972 0.251657 0.5 
0.643806 0.267676 0.5 0.639741 0.283286 0.5 0.635844 0.298237 0.5 
0.632164 0.312326 0.5 0.628742 0.325406 0.5 0.6256 0.337388 0.5 
0.622748 0.348232 0.5 0.620187 0.357946 0.5 0.617907 0.366571 0.5 
0.615892 0.37417 0.5 0.614122 0.380824 0.5 0.612576 0.386619 0.5 
0.710525 0.0925718 0.5 0.709763 0.0954783 0.5 0.708869 0.0989024 0.5 
0.70782 0.102927 0.5 0.706595 0.107643 0.5 0.705167 0.113148 0.5 
0.703513 0.119543 0.5 0.701605 0.12693 0.5 0.699422 0.135402 0.5 
0.696944 0.145039 0.5 0.694157 0.155893 0.5 0.691057 0.16798 0.5 
0.687655 0.181267 0.5 0.683972 0.195661 0.5 0.680047 0.211008 0.5 
0.675936 0.227093 0.5 0.671704 0.243648 0.5 0.667428 0.260372 0.5 
0.663187 0.276953 0.5 0.659055 0.29309 0.5 0.655099 0.308521 0.5 
0.651374 0.323031 0.5 0.647918 0.336467 0.5 0.644755 0.348739 0.5 
0.641895 0.359811 0.5 0.639336 0.369694 0.5 0.637066 0.378435 0.5 
0.635069 0.386106 0.5 0.633323 0.392795 0.5 0.631804 0.398597 0.5 
0.73047 0.0965138 0.5 0.72972 0.0994253 0.5 0.728836 0.102867 0.5 
0.727796 0.106926 0.5 0.726575 0.111698 0.5 0.72515 0.117286 0.5 
0.723491 0.123797 0.5 0.721574 0.13134 0.5 0.719374 0.140013 0.5 
0.716869 0.149903 0.5 0.714045 0.161065 0.5 0.710899 0.173519 0.5 
0.707438 0.18723 0.5 0.703688 0.202103 0.5 0.699688 0.217974 0.5 
0.695495 0.234617 0.5 0.691179 0.251747 0.5 0.686819 0.269047 0.5 
0.682498 0.286186 0.5 0.678294 0.302847 0.5 0.674277 0.318753 0.5 
0.670501 0.33368 0.5 0.667008 0.34747 0.5 0.66382 0.360031 0.5 
0.660948 0.371327 0.5 0.658387 0.381376 0.5 0.656125 0.390233 0.5 
0.654142 0.397975 0.5 0.652415 0.404699 0.5 0.65092 0.410506 0.5 
0.750391 0.100451 0.5 0.749652 0.103367 0.5 0.748776 0.106825 0.5 
0.747741 0.110918 0.5 0.746524 0.115744 0.5 0.745097 0.121413 0.5 
0.743432 0.128039 0.5 0.741502 0.135734 0.5 0.739279 0.144606 0.5 
0.736743 0.154745 0.5 0.733878 0.166212 0.5 0.73068 0.179029 0.5 
0.727156 0.193161 0.5 0.723332 0.208508 0.5 0.71925 0.224898 0.5 
0.714969 0.242092 0.5 0.710562 0.259793 0.5 0.706112 0.277662 0.5 
0.701705 0.295353 0.5 0.697422 0.312533 0.5 0.693336 0.328909 0.5 
[...]
POINT_DATA 34650
FIELD FieldData 5
pressure 1 34650 float
0.178573 0.255305 0.251927 0.249782 0.248381 0.24735 0.246772 0.24637 0.246171 
0.246047 0.246002 0.246049 0.246146 0.246218 0.24627 0.246321 0.246385 0.24646 
0.246551 0.24665 0.246748 0.246849 0.246949 0.247015 0.247016 0.246905 0.246573 
0.245682 0.243191 0.232681 0.178573 0.318882 0.313485 0.305615 0.292734 0.278806 
0.265471 0.255482 0.249928 0.247512 0.246527 0.246117 0.24602 0.246104 0.246201 
0.246266 0.24632 0.246392 0.246483 0.246583 0.246687 0.246798 0.246904 0.246975 
0.246974 0.246845 0.246478 0.245518 0.242949 0.231979 0.178573 0.314674 0.313255 
0.312061 0.310296 0.306236 0.298552 0.285773 0.270526 0.257506 0.250329 0.247459 
0.246404 0.246089 0.246126 0.246223 0.2463 0.246372 0.246463 0.246566 0.246676 
0.246783 0.246863 0.246893 0.246842 0.246656 0.246223 0.245188 0.24245 0.231149 
0.178573 0.324157 0.322867 0.322332 0.321169 0.319416 0.316393 0.31126 0.30187 
0.286606 0.268433 0.254782 0.248691 0.246713 0.246185 0.24617 0.246271 0.246367 
0.246444 0.246524 0.246607 0.246675 0.246713 0.246711 0.246651 0.246471 0.246049 
0.245024 0.242255 0.230669 0.178573 0.319845 0.318466 0.318254 0.31745 0.316432 
0.315273 0.313797 0.311765 0.306535 0.295929 0.276743 0.258899 0.249662 0.246923 
0.24626 0.246223 0.246308 0.246372 0.246417 0.246474 0.246534 0.246593 0.246638 
0.246632 0.246502 0.246105 0.245063 0.242269 0.230186 0.178573 0.323665 0.322618 
0.322504 0.322396 0.322327 0.322173 0.321493 0.31989 0.316839 0.311723 0.300799 
0.282093 0.261302 0.250026 0.24692 0.246268 0.246209 0.246257 0.246319 0.246402 
0.246503 0.246603 0.246674 0.246663 0.246487 0.246034 0.244875 0.241904 0.229303 
0.178573 0.323402 0.32239 0.322293 0.322014 0.321581 0.321142 0.320141 0.318729 
0.31657 0.313875 0.310225 0.302435 0.28263 0.260844 0.249472 0.246707 0.246212 
0.246192 0.246291 0.246409 0.246517 0.246598 0.246627 0.246557 0.246326 0.245805 
0.244596 0.241345 0.228524 0.178573 0.324304 0.323423 0.323379 0.323285 0.323151 
0.323113 0.322888 0.322391 0.32171 0.32083 0.318229 0.31365 0.300877 0.280737 
0.258422 0.24847 0.246527 0.246218 0.246284 0.246397 0.246475 0.246519 0.24652 
0.246443 0.246211 0.245675 0.244418 0.241124 0.227869 0.178573 0.324903 0.324079 
0.324022 0.32384 0.323559 0.323383 0.322963 0.322376 0.321411 0.320078 0.317931 
0.314304 0.310065 0.299348 0.274786 0.254516 0.247594 0.246424 0.246275 0.246336 
0.246393 0.246432 0.246437 0.246368 0.246136 0.245597 0.244292 0.241033 0.227146 
0.178573 0.325232 0.324477 0.324446 0.324287 0.324088 0.324042 0.323856 0.323586 
0.323156 0.322632 0.321746 0.320435 0.317585 0.310287 0.293367 0.267695 0.250963 
0.24698 0.246317 0.246256 0.246313 0.24637 0.246392 0.246329 0.246106 0.245568 
0.244246 0.240814 0.226449 0.178573 0.32563 0.324953 0.324944 0.324844 0.324727 
0.324749 0.324622 0.324318 0.323773 0.323026 0.321718 0.319928 0.317133 0.311987 
0.306481 0.285779 0.259994 0.248588 0.246563 0.24623 0.246279 0.246373 0.246413 
0.246354 0.246096 0.245508 0.244078 0.240386 0.225516 0.178573 0.325949 0.325315 
0.325305 0.325183 0.325027 0.324975 0.324818 0.324472 0.324002 0.323505 0.322817 
0.322053 0.320786 0.318324 0.314229 0.297646 0.274697 0.253349 0.247311 0.246386 
0.246315 0.246402 0.246418 0.246301 0.245987 0.245287 0.243774 0.239866 0.22457 
0.178573 0.325998 0.325395 0.325384 0.325261 0.325104 0.325059 0.325003 0.324834 
0.324646 0.32448 0.324095 0.323548 0.322367 0.319778 0.314813 0.306417 0.290116 
0.26292 0.249268 0.246793 0.246369 0.246346 0.246314 0.246167 0.245835 0.24515 
0.243591 0.239744 0.223888 0.178573 0.326044 0.325482 0.325481 0.325393 0.325303 
0.325323 0.325386 0.3253 0.32517 0.324877 0.324271 0.323449 0.322251 0.321069 
0.318689 0.313308 0.300825 0.276156 0.254143 0.247521 0.246445 0.246251 0.246211 
0.246103 0.24579 0.245117 0.243524 0.239656 0.223187 0.178573 0.326262 0.325744 
0.32576 0.325683 0.325602 0.325585 0.325618 0.325411 0.325144 0.324735 0.324207 
0.323773 0.323459 0.323027 0.321931 0.317036 0.307739 0.289836 0.262909 0.249213 
0.246709 0.24625 0.246187 0.246079 0.245734 0.244996 0.243352 0.239311 0.222404 
0.178573 0.326439 0.325947 0.325953 0.32585 0.325723 0.325615 0.325589 0.325334 
0.325101 0.324869 0.324756 0.324794 0.3246 0.323912 0.321712 0.317172 0.312587 
0.30196 0.274317 0.253231 0.247322 0.246367 0.246158 0.245985 0.245595 0.244837 
0.243151 0.23892 0.221755 0.178573 0.32641 0.32593 0.325933 0.325828 0.325702 
0.325615 0.325643 0.325528 0.32552 0.325581 0.32568 0.325642 0.324952 0.323528 
0.321647 0.319521 0.317222 0.309394 0.286862 0.260709 0.248671 0.246604 0.246113 
0.24589 0.245517 0.244754 0.243009 0.238594 0.22104 0.178573 0.326379 0.325899 
0.325902 0.325809 0.325744 0.325768 0.325982 0.326073 0.326221 0.326288 0.32618 
0.325607 0.324575 0.323371 0.322682 0.322093 0.319988 0.312299 0.297951 0.270837 
0.251561 0.247036 0.246151 0.245835 0.245471 0.244653 0.242807 0.238293 0.22023 
0.178573 0.32767 0.326946 0.326863 0.32661 0.326447 0.326342 0.326494 0.326525 
0.326619 0.326454 0.326037 0.325287 0.324454 0.324045 0.32435 0.323489 0.32068 
0.314293 0.306535 0.282412 0.257284 0.247978 0.246344 0.245826 0.245404 0.244545 
0.242649 0.23813 0.219578 0.178573 0.337096 0.334493 0.33347 0.331434 0.329796 
0.328501 0.327838 0.32719 0.326689 0.326103 0.3256 0.325172 0.324965 0.325156 
0.325095 0.323329 0.32055 0.316784 0.312142 0.293291 0.265381 0.249822 0.246669 
0.245841 0.245324 0.244463 0.242543 0.237947 0.218929 0.178573 0.367252 0.362899 
0.359788 0.353587 0.346582 0.339485 0.333746 0.330253 0.327918 0.326566 0.325769 
0.325611 0.325697 0.325692 0.324781 0.322834 0.321372 0.320514 0.316426 0.300614 
0.276483 0.253887 0.247302 0.245982 0.245276 0.244361 0.242384 0.237686 0.218216 
0.255305 0.255305 0.251927 0.249782 0.248381 0.24735 0.246772 0.24637 0.246171 
0.246047 0.246002 0.246049 0.246146 0.246218 0.24627 0.246321 0.246385 0.24646 
0.246551 0.24665 0.246748 0.246849 0.246949 0.247015 0.247016 0.246905 0.246573 
0.245682 0.243191 0.232681 0.318882 0.318882 0.313485 0.305615 0.292734 0.278806 
0.265471 0.255482 0.249928 0.247512 0.246527 0.246117 0.24602 0.246104 0.246201 
0.246266 0.24632 0.246392 0.246483 0.246583 0.246687 0.246798 0.246904 0.246975 
0.246974 0.246845 0.246478 0.245518 0.242949 0.231979 0.314674 0.314674 0.313255 
0.312061 0.310296 0.306236 0.298552 0.285773 0.270526 0.257506 0.250329 0.247459 
0.246404 0.246089 0.246126 0.246223 0.2463 0.246372 0.246463 0.246566 0.246676 
0.246783 0.246863 0.246893 0.246842 0.246656 0.246223 0.245188 0.24245 0.231149 
0.324157 0.324157 0.322867 0.322332 0.321169 0.319416 0.316393 0.31126 0.30187 
0.286606 0.268433 0.254782 0.248691 0.246713 0.246185 0.24617 0.246271 0.246367 
0.246444 0.246524 0.246607 0.246675 0.246713 0.246711 0.246651 0.246471 0.246049 
0.245024 0.242255 0.230669 0.319845 0.319845 0.318466 0.318254 0.31745 0.316432 
0.315273 0.313797 0.311765 0.306535 0.295929 0.276743 0.258899 0.249662 0.246923 
0.24626 0.246223 0.246308 0.246372 0.246417 0.246474 0.246534 0.246593 0.246638 
0.246632 0.246502 0.246105 0.245063 0.242269 0.230186 0.323665 0.323665 0.322618 
0.322504 0.322396 0.322327 0.322173 0.321493 0.31989 0.316839 0.311723 0.300799 
0.282093 0.261302 0.250026 0.24692 0.246268 0.246209 0.246257 0.246319 0.246402 
0.246503 0.246603 0.246674 0.246663 0.246487 0.246034 0.244875 0.241904 0.229303 
0.323402 0.323402 0.32239 0.322293 0.322014 0.321581 0.321142 0.320141 0.318729 
0.31657 0.313875 0.310225 0.302435 0.28263 0.260844 0.249472 0.246707 0.246212 
0.246192 0.246291 0.246409 0.246517 0.246598 0.246627 0.246557 0.246326 0.245805 
0.244596 0.241345 0.228524 0.324304 0.324304 0.323423 0.323379 0.323285 0.323151 
0.323113 0.322888 0.322391 0.32171 0.32083 0.318229 0.31365 0.300877 0.280737 
0.258422 0.24847 0.246527 0.246218 0.246284 0.246397 0.246475 0.246519 0.24652 
0.246443 0.246211 0.245675 0.244418 0.241124 0.227869 0.324903 0.324903 0.324079 
0.324022 0.32384 0.323559 0.323383 0.322963 0.322376 0.321411 0.320078 0.317931 
0.314304 0.310065 0.299348 0.274786 0.254516 0.247594 0.246424 0.246275 0.246336 
0.246393 0.246432 0.246437 0.246368 0.246136 0.245597 0.244292 0.241033 0.227146 
0.325232 0.325232 0.324477 0.324446 0.324287 0.324088 0.324042 0.323856 0.323586 
0.323156 0.322632 0.321746 0.320435 0.317585 0.310287 0.293367 0.267695 0.250963 
0.24698 0.246317 0.246256 0.246313 0.24637 0.246392 0.246329 0.246106 0.245568 
0.244246 0.240814 0.226449 0.32563 0.32563 0.324953 0.324944 0.324844 0.324727 
0.324749 0.324622 0.324318 0.323773 0.323026 0.321718 0.319928 0.317133 0.311987 
0.306481 0.285779 0.259994 0.248588 0.246563 0.24623 0.246279 0.246373 0.246413 
0.246354 0.246096 0.245508 0.244078 0.240386 0.225516 0.325949 0.325949 0.325315 
0.325305 0.325183 0.325027 0.324975 0.324818 0.324472 0.324002 0.323505 0.322817 
0.322053 0.320786 0.318324 0.314229 0.297646 0.274697 0.253349 0.247311 0.246386 
0.246315 0.246402 0.246418 0.246301 0.245987 0.245287 0.243774 0.239866 0.22457 
0.325998 0.325998 0.325395 0.325384 0.325261 0.325104 0.325059 0.325003 0.324834 
0.324646 0.32448 0.324095 0.323548 0.322367 0.319778 0.314813 0.306417 0.290116 
0.26292 0.249268 0.246793 0.246369 0.246346 0.246314 0.246167 0.245835 0.24515 
0.243591 0.239744 0.223888 0.326044 0.326044 0.325482 0.325481 0.325393 0.325303 
0.325323 0.325386 0.3253 0.32517 0.324877 0.324271 0.323449 0.322251 0.321069 
0.318689 0.313308 0.300825 0.276156 0.254143 0.247521 0.246445 0.246251 0.246211 
0.246103 0.24579 0.245117 0.243524 0.239656 0.223187 0.326262 0.326262 0.325744 
0.32576 0.325683 0.325602 0.325585 0.325618 0.325411 0.325144 0.324735 0.324207 
0.323773 0.323459 0.323027 0.321931 0.317036 0.307739 0.289836 0.262909 0.249213 
0.246709 0.24625 0.246187 0.246079 0.245734 0.244996 0.243352 0.239311 0.222404 
0.326439 0.326439 0.325947 0.325953 0.32585 0.325723 0.325615 0.325589 0.325334 
0.325101 0.324869 0.324756 0.324794 0.3246 0.323912 0.321712 0.317172 0.312587 
0.30196 0.274317 0.253231 0.247322 0.246367 0.246158 0.245985 0.245595 0.244837 
0.243151 0.23892 0.221755 0.32641 0.32641 0.32593 0.325933 0.325828 0.325702 
0.325615 0.325643 0.325528 0.32552 0.325581 0.32568 0.325642 0.324952 0.323528 
0.321647 0.319521 0.317222 0.309394 0.286862 0.260709 0.248671 0.246604 0.246113 
0.24589 0.245517 0.244754 0.243009 0.238594 0.22104 0.326379 0.326379 0.325899 
0.325902 0.325809 0.325744 0.325768 0.325982 0.326073 0.326221 0.326288 0.32618 
0.325607 0.324575 0.323371 0.322682 0.322093 0.319988 0.312299 0.297951 0.270837 
0.251561 0.247036 0.246151 0.245835 0.245471 0.244653 0.242807 0.238293 0.22023 
0.32767 0.32767 0.326946 0.326863 0.32661 0.326447 0.326342 0.326494 0.326525 
0.326619 0.326454 0.326037 0.325287 0.324454 0.324045 0.32435 0.323489 0.32068 
0.314293 0.306535 0.282412 0.257284 0.247978 0.246344 0.245826 0.245404 0.244545 
0.242649 0.23813 0.219578 0.337096 0.337096 0.334493 0.33347 0.331434 0.329796 
0.328501 0.327838 0.32719 0.326689 0.326103 0.3256 0.325172 0.324965 0.325156 
0.325095 0.323329 0.32055 0.316784 0.312142 0.293291 0.265381 0.249822 0.246669 
0.245841 0.245324 0.244463 0.242543 0.237947 0.218929 0.367252 0.367252 0.362899 
0.359788 0.353587 0.346582 0.339485 0.333746 0.330253 0.327918 0.326566 0.325769 
0.325611 0.325697 0.325692 0.324781 0.322834 0.321372 0.320514 0.316426 0.300614 
0.276483 0.253887 0.247302 0.245982 0.245276 0.244361 0.242384 0.237686 0.218216 
0.252939 0.252939 0.250078 0.249001 0.247832 0.24694 0.246456 0.246106 0.245939 
0.245821 0.245787 0.245835 0.245919 0.245973 0.246008 0.246046 0.246094 0.246154 
0.246228 0.246313 0.246385 0.246448 0.2465 0.246516 0.246461 0.246282 0.245884 
0.244953 0.243001 0.238585 0.321513 0.321513 0.315684 0.305322 0.290616 0.276356 
0.263277 0.254034 0.249151 0.247056 0.246213 0.245865 0.245805 0.245894 0.24598 
0.246024 0.246059 0.246118 0.246191 0.24627 0.246344 0.246417 0.24648 0.246502 
0.246445 0.246249 0.245813 0.244813 0.242753 0.238011 0.315948 0.315948 0.314891 
0.313729 0.311496 0.306333 0.297554 0.28343 0.268334 0.255985 0.249521 0.246989 
0.24608 0.245841 0.245903 0.245987 0.24604 0.246095 0.246171 0.246249 0.246327 
0.246398 0.24644 0.246422 0.246314 0.24606 0.245554 0.244488 0.242266 0.237369 
0.326051 0.326051 0.324992 0.323945 0.32247 0.320629 0.316856 0.311151 0.30047 
0.284396 0.266227 0.253469 0.248048 0.246332 0.245917 0.245932 0.246023 0.246099 
0.246159 0.246212 0.246258 0.246295 0.246296 0.246243 0.246123 0.245876 0.245386 
0.244328 0.242078 0.236973 0.321248 0.321248 0.320265 0.319651 0.318665 0.317253 
0.316009 0.314075 0.311741 0.30577 0.294226 0.274644 0.257312 0.24891 0.246519 
0.245985 0.245977 0.246053 0.246096 0.246111 0.246131 0.246161 0.246179 0.246169 
0.246106 0.245912 0.245442 0.244356 0.242066 0.236617 0.32505 0.32505 0.324349 
0.323963 0.323568 0.323067 0.322662 0.321963 0.320374 0.317153 0.311689 0.299178 
0.280042 0.259605 0.24924 0.246521 0.245992 0.245957 0.245987 0.246017 0.246063 
0.246133 0.24619 0.246211 0.246146 0.2459 0.245362 0.244142 0.241724 0.236018 
0.324705 0.324705 0.32399 0.323711 0.323213 0.322484 0.321738 0.320536 0.319023 
0.316728 0.313882 0.309762 0.301118 0.280594 0.259215 0.248754 0.246337 0.245934 
0.245921 0.245993 0.246075 0.24615 0.246192 0.246174 0.246045 0.245738 0.245124 
0.243865 0.24123 0.235492 0.32546 0.32546 0.324844 0.324691 0.324369 0.323998 
0.323692 0.323293 0.322673 0.322062 0.32092 0.318307 0.313472 0.299649 0.278789 
0.256979 0.247877 0.246186 0.24593 0.245988 0.246072 0.246116 0.246122 0.246069 
0.245922 0.245615 0.244999 0.243714 0.241046 0.234895 0.325954 0.325954 0.325388 
0.325259 0.324896 0.324449 0.324028 0.323428 0.322685 0.321669 0.320445 0.318009 
0.314205 0.30961 0.297927 0.272916 0.253381 0.247117 0.246103 0.245975 0.246018 
0.246044 0.246035 0.245978 0.245842 0.245548 0.244946 0.243626 0.240963 0.234305 
0.326177 0.326177 0.325679 0.325586 0.325293 0.324951 0.324655 0.324302 0.32389 
0.323362 0.322874 0.321836 0.320479 0.317487 0.309879 0.291795 0.265925 0.250131 
0.246575 0.245999 0.245942 0.245966 0.245968 0.245931 0.245817 0.245538 0.244926 
0.243566 0.240778 0.233982 0.326475 0.326475 0.326056 0.325999 0.325807 0.325575 
0.325365 0.325078 0.324647 0.324027 0.323273 0.322043 0.320014 0.317112 0.311681 
0.305706 0.284005 0.258549 0.247997 0.246198 0.245908 0.245929 0.245971 0.245964 
0.245858 0.245538 0.244865 0.243405 0.240379 0.233419 0.326717 0.326717 0.326337 
0.326289 0.326104 0.325861 0.325594 0.325273 0.324797 0.324232 0.323681 0.323043 
0.322117 0.320755 0.318183 0.314049 0.296502 0.272965 0.252335 0.246859 0.246039 
0.245964 0.246007 0.245983 0.245813 0.245431 0.244653 0.243107 0.239903 0.232666 
0.326689 0.326689 0.326338 0.326298 0.326115 0.325889 0.325653 0.325435 0.325142 
0.324857 0.324646 0.324298 0.323871 0.322528 0.319726 0.314616 0.305798 0.28863 
0.261426 0.248633 0.246395 0.246013 0.245963 0.245887 0.245681 0.245282 0.244522 
0.242919 0.239765 0.232044 0.326645 0.326645 0.326331 0.326314 0.326177 0.326035 
0.325892 0.325813 0.325607 0.325386 0.325059 0.324451 0.323649 0.322317 0.321057 
0.318587 0.313012 0.299817 0.274603 0.253117 0.247057 0.246072 0.245871 0.245787 
0.245619 0.245242 0.244478 0.24284 0.239658 0.231488 0.326804 0.326804 0.32653 
0.32653 0.326415 0.326292 0.326151 0.326048 0.325727 0.325362 0.324895 0.324334 
0.323931 0.323514 0.323046 0.322019 0.31702 0.307061 0.288404 0.26148 0.248589 
0.2463 0.245867 0.245767 0.245604 0.245189 0.244355 0.242652 0.239337 0.230918 
0.326944 0.326944 0.326685 0.326686 0.326545 0.326377 0.326168 0.326006 0.325627 
0.325297 0.324999 0.324857 0.324967 0.32476 0.324095 0.321867 0.317088 0.312166 
0.300953 0.272759 0.252268 0.246873 0.24597 0.24574 0.245514 0.245051 0.244193 
0.242455 0.238983 0.230501 0.326877 0.326877 0.326621 0.326623 0.326483 0.326307 
0.326133 0.32603 0.325797 0.325689 0.325704 0.325789 0.325819 0.325206 0.323805 
0.321728 0.319381 0.31697 0.309057 0.285336 0.259364 0.2481 0.246178 0.245694 
0.245417 0.244972 0.244113 0.242334 0.238692 0.229969 0.326765 0.326765 0.326506 
0.32652 0.326399 0.326292 0.326244 0.326344 0.326334 0.326405 0.326423 0.326304 
0.325771 0.324767 0.323563 0.322644 0.322061 0.319871 0.31204 0.296835 0.269303 
0.250721 0.246571 0.245718 0.245356 0.244925 0.244024 0.242144 0.238398 0.229309 
0.327815 0.327815 0.327378 0.327319 0.327055 0.326878 0.326751 0.326824 0.326792 
0.32683 0.326604 0.326161 0.325417 0.324581 0.324146 0.32437 0.323483 0.320673 
0.314118 0.305857 0.280853 0.256103 0.247434 0.245883 0.245342 0.244861 0.243924 
0.241987 0.238228 0.228777 0.33563 0.33563 0.333355 0.332874 0.331254 0.329903 
0.32872 0.328061 0.327401 0.326862 0.326241 0.325709 0.325275 0.325074 0.325245 
0.325228 0.323435 0.320495 0.316628 0.311749 0.292101 0.263921 0.249102 0.246171 
0.245355 0.244781 0.243838 0.241868 0.238046 0.228289 0.364498 0.364498 0.359678 
0.356633 0.351198 0.344891 0.338516 0.333329 0.33012 0.327929 0.326591 0.325813 
0.325679 0.325803 0.325846 0.324962 0.322874 0.32127 0.320398 0.31619 0.299783 
0.274952 0.252828 0.246754 0.24547 0.244717 0.243723 0.241684 0.237792 0.227701 
0.251214 0.251214 0.249475 0.248566 0.2476 0.246831 0.246402 0.246079 0.245918 
0.245803 0.245783 0.245843 0.245929 0.245975 0.246003 0.246038 0.246083 0.246136 
0.246201 0.246266 0.246327 0.24638 0.24642 0.24643 0.246385 0.246236 0.245905 
0.24526 0.243888 0.243343 0.325054 0.325054 0.318034 0.305629 0.289595 0.274438 
0.261054 0.252581 0.248595 0.246872 0.246141 0.245833 0.245799 0.245901 0.245982 
0.246018 0.24605 0.246103 0.246167 0.246231 0.246294 0.246355 0.246406 0.246423 
0.246374 0.246205 0.245831 0.245116 0.243662 0.242934 0.316704 0.316704 0.316748 
0.315798 0.313391 0.307867 0.297787 0.282754 0.266199 0.254422 0.248971 0.246825 
0.246017 0.245823 0.245903 0.245987 0.246032 0.246081 0.246149 0.246219 0.246285 
0.246341 0.24637 0.246349 0.246248 0.24602 0.245584 0.244797 0.243219 0.242409 
0.326051 0.326051 0.325834 0.325156 0.323916 0.322174 0.318987 0.312685 0.301359 
0.283247 0.264167 0.252248 0.247724 0.246239 0.24589 0.245928 0.24602 0.246087 
0.246141 0.246188 0.246223 0.24624 0.246227 0.246171 0.246059 0.245834 0.245416 
0.244639 0.243028 0.242079 0.320805 0.320805 0.320333 0.320013 0.319168 0.317938 
0.316601 0.315165 0.313146 0.307 0.294128 0.272995 0.255687 0.248448 0.246406 
0.245957 0.245971 0.246047 0.246082 0.24609 0.246098 0.246107 0.246112 0.246101 
0.246042 0.245864 0.245459 0.244674 0.243031 0.241881 0.32469 0.32469 0.324269 
0.324153 0.323849 0.323472 0.32324 0.322573 0.321203 0.318405 0.313542 0.300005 
0.278814 0.257912 0.248725 0.246417 0.245965 0.245949 0.245976 0.245997 0.246032 
0.246081 0.246129 0.246144 0.246078 0.245857 0.245385 0.244503 0.242761 0.241552 
0.324285 0.324285 0.323852 0.323751 0.323387 0.322857 0.322131 0.320978 0.319406 
0.317176 0.31466 0.310954 0.302153 0.279917 0.25765 0.248325 0.24625 0.245908 
0.245909 0.245976 0.246047 0.246105 0.246135 0.246106 0.245979 0.245705 0.245186 
0.244255 0.242343 0.241161 0.325022 0.325022 0.324638 0.324592 0.324416 0.324192 
0.323888 0.323548 0.322964 0.322238 0.321389 0.319243 0.314797 0.300467 0.277776 
0.255565 0.247588 0.246119 0.245909 0.245973 0.246048 0.246076 0.246065 0.246004 
0.245867 0.245592 0.245077 0.244104 0.242128 0.240663 0.325583 0.325583 0.325209 
0.325144 0.324925 0.324592 0.324168 0.323651 0.322979 0.321902 0.320561 0.318355 
0.314815 0.310676 0.298711 0.271672 0.252311 0.246951 0.24606 0.245955 0.245996 
0.246005 0.245981 0.245922 0.245796 0.245525 0.244986 0.243972 0.242059 0.240321 
0.325827 0.325827 0.325489 0.325436 0.325252 0.325 0.324729 0.324431 0.324098 
0.323538 0.322997 0.322072 0.320828 0.318273 0.311007 0.292209 0.264487 0.249534 
0.246481 0.245964 0.245917 0.24593 0.245923 0.245883 0.245768 0.245501 0.24495 
0.24392 0.24194 0.240318 0.326159 0.326159 0.325868 0.325846 0.325736 0.325594 
0.325427 0.32519 0.324856 0.324239 0.323495 0.322123 0.320215 0.317407 0.312234 