# vtk DataFile Version 5.1
vtk output
ASCII
DATASET POLYDATA
POINTS 980 float
1.30044 0.499563 0.55 1.30022 0.498782 0.550998 1.30087 0.499135 0.55 
1.29979 0.497206 0.553 1.29914 0.494774 0.55609 1.29844 0.492197 0.559363 
1.29768 0.489399 0.562918 1.29684 0.486294 0.566862 1.30849 0.491511 0.55 
1.30653 0.490467 0.553 1.30452 0.489393 0.55609 1.30238 0.488254 0.559363 
1.30006 0.487018 0.562918 1.29653 0.485133 0.568337 1.29749 0.485646 0.566862 
1.29591 0.482777 0.571312 1.29485 0.478746 0.576403 1.29363 0.474087 0.582287 
1.31711 0.482887 0.55 1.31514 0.481864 0.553 1.3131 0.480809 0.55609 
1.31095 0.479692 0.559363 1.3086 0.478478 0.562918 1.30601 0.477132 0.566862 
1.30307 0.475613 0.571312 1.29972 0.473876 0.576403 1.2926 0.470186 0.587214 
1.29585 0.471868 0.582287 1.29221 0.468651 0.589143 1.29056 0.462261 0.597175 
1.28863 0.454741 0.606626 1.31265 0.466034 0.571312 1.30926 0.464333 0.576403 
1.30535 0.462368 0.582287 1.30078 0.460077 0.589143 1.29543 0.457394 0.597175 
1.28841 0.453872 0.607718 1.28914 0.454237 0.606626 1.2864 0.445821 0.617779 
1.30603 0.446794 0.597175 1.29966 0.443714 0.606626 1.28398 0.436132 0.629888 
1.29214 0.440079 0.617779 1.28377 0.435263 0.630969 1.2807 0.422704 0.646595 
1.30389 0.428332 0.617779 1.29488 0.424153 0.630969 1.27929 0.416922 0.653788 
1.2842 0.419201 0.646595 1.2771 0.407773 0.665124 1.29712 0.406287 0.646595 
1.27434 0.396219 0.679441 1.28427 0.400608 0.665124 1.27289 0.389999 0.687115 
1.26915 0.374019 0.706831 1.28305 0.37984 0.687115 1.26796 0.368816 0.713228 
1.26372 0.350345 0.735935 1.28001 0.35676 0.713228 1.26219 0.34356 0.744248 
1.25807 0.32525 0.76668 1.27448 0.331272 0.744248 1.25546 0.313436 0.781109 
1.25222 0.298821 0.798959 1.26556 0.303335 0.781109 1.24757 0.277516 0.824918 
1.24618 0.271174 0.832646 1.25209 0.272995 0.824918 1.23999 0.242461 0.867549 
1.23833 0.234677 0.876993 1.23368 0.212864 0.903456 1.25496 0.218052 0.876993 
1.2275 0.183606 0.938899 1.22728 0.182589 0.940131 1.2283 0.182803 0.938899 
1.22083 0.151866 0.977304 1.21475 0.122751 1.0125 1.21437 0.120936 1.01469 
1.21629 0.121206 1.0125 1.20793 0.0900466 1.05202 1.20156 0.0594421 1.089 
1.19966 0.0503374 1.1 1.21981 0.0301947 1.1 1.31845 0.481552 0.55 
1.31785 0.479153 0.553 1.31723 0.476681 0.55609 1.31657 0.474063 0.559363 
1.31586 0.471219 0.562918 1.31507 0.468065 0.566862 1.32687 0.473128 0.55 
1.32487 0.47213 0.553 1.32281 0.471102 0.55609 1.32062 0.470013 0.559363 
1.31825 0.468831 0.562918 1.31484 0.467131 0.568029 1.31562 0.467519 0.566862 
1.3142 0.46449 0.571312 1.3132 0.460395 0.576403 1.31205 0.455662 0.582287 
1.31071 0.450147 0.589143 1.33587 0.46113 0.553 1.33378 0.460128 0.55609 
1.33157 0.459067 0.559363 1.32917 0.457914 0.562918 1.3265 0.456635 0.566862 
1.3235 0.455192 0.571312 1.32006 0.453541 0.576403 1.31608 0.451633 0.582287 
1.31041 0.448911 0.590679 1.31145 0.449409 0.589143 1.30916 0.443665 0.597175 
1.30734 0.436032 0.606626 1.3282 0.439517 0.582287 1.3235 0.437357 0.589143 
1.318 0.434827 0.597175 1.30571 0.429177 0.615113 1.31152 0.43185 0.606626 
1.30521 0.427013 0.617779 1.30272 0.416309 0.630969 1.3249 0.418477 0.606626 
1.31714 0.415078 0.617779 1.30077 0.407902 0.641328 1.30797 0.411059 0.630969 
1.29979 0.403614 0.646595 1.29635 0.388529 0.665124 1.31165 0.391755 0.646595 
1.29556 0.385082 0.669358 1.29855 0.386323 0.665124 1.29232 0.370569 0.687115 
1.3146 0.370276 0.665124 1.29012 0.36074 0.69914 1.29877 0.364111 0.687115 
1.28758 0.34919 0.713228 1.28445 0.334931 0.730619 1.29721 0.339559 0.713228 
1.28203 0.323725 0.744248 1.27857 0.307741 0.763689 1.29314 0.31261 0.744248 
1.27551 0.29338 0.781109 1.27251 0.279293 0.798197 1.28561 0.283278 0.781109 
1.26786 0.257218 0.824918 1.26629 0.24974 0.83397 1.2734 0.251679 0.824918 
1.25995 0.21927 0.87078 1.25889 0.214121 0.876993 1.25351 0.188097 0.908393 
1.27954 0.193469 0.876993 1.24832 0.162783 0.938899 1.24702 0.156456 0.946524 
1.25353 0.157575 0.938899 1.24052 0.124598 0.984882 1.23585 0.101647 1.0125 
1.23405 0.0927769 1.02317 1.24373 0.0937682 1.0125 1.22763 0.0612462 1.06112 
1.22132 0.0302466 1.09843 1.22105 0.0289454 1.1 1.33707 0.462927 0.55 
1.33675 0.461553 0.551697 1.3379 0.462101 0.55 1.33651 0.460494 0.553 
1.33593 0.457983 0.55609 1.33531 0.455324 0.559363 1.33465 0.452435 0.562918 
1.33391 0.44923 0.566862 1.33307 0.445614 0.571312 1.33212 0.441477 0.576403 
1.35036 0.449641 0.55 1.3483 0.448701 0.553 1.34618 0.447733 0.55609 
1.34393 0.446708 0.559363 1.34149 0.445594 0.562918 1.33878 0.444359 0.566862 
1.33572 0.442965 0.571312 1.33208 0.441303 0.576617 1.33223 0.44137 0.576403 
1.33104 0.436677 0.582287 1.32977 0.431084 0.589143 1.32829 0.424531 0.597175 
1.35262 0.43052 0.566862 1.34951 0.429173 0.571312 1.34596 0.427632 0.576403 
1.34186 0.425851 0.582287 1.33708 0.423776 0.589143 1.32715 0.419465 0.603385 
1.33148 0.421345 0.597175 1.32656 0.416811 0.606626 1.32454 0.407677 0.617779 
1.32216 0.396875 0.630969 1.34666 0.406167 0.597175 1.33996 0.403417 0.606626 
1.33205 0.400172 0.617779 1.32197 0.396035 0.631995 1.3227 0.396334 0.630969 
1.31937 0.384036 0.646595 1.33925 0.379779 0.630969 1.31655 0.371036 0.662414 
1.32797 0.375434 0.646595 1.31607 0.368802 0.665124 1.31221 0.350674 0.687115 
1.33259 0.352291 0.665124 1.3109 0.344522 0.694578 1.31639 0.34649 0.687115 
1.30766 0.32911 0.713228 1.30503 0.316583 0.728387 1.31643 0.320341 0.713228 
1.30231 0.303441 0.744248 1.29898 0.287342 0.763678 1.31393 0.291822 0.744248 
1.29602 0.272869 0.781109 1.29277 0.25696 0.80027 1.30788 0.261013 0.781109 
1.28862 0.23646 0.824918 1.28643 0.225627 0.837943 1.29697 0.228113 0.824918 
1.28 0.193564 0.876436 1.27991 0.1931 0.876993 1.27351 0.161014 0.915476 
1.26963 0.141467 0.938899 1.26701 0.128235 0.954755 1.28099 0.130114 0.938899 
1.26054 0.0954893 0.993971 1.25748 0.0800204 1.0125 1.25412 0.063039 1.03284 
1.2732 0.0643002 1.0125 1.24781 0.0311328 1.07106 1.24302 0.00697725 1.1 
1.25 1.11022e-18 1.1 1.35626 0.443743 0.55 1.35572 0.441279 0.553 
1.35517 0.438741 0.55609 1.35458 0.436053 0.559363 1.35395 0.433133 0.562918 
1.36441 0.43559 0.55 1.36231 0.434689 0.553 1.36015 0.43376 0.55609 
1.35786 0.432777 0.559363 1.35346 0.430886 0.565654 1.35537 0.431708 0.562918 
1.35325 0.42989 0.566862 1.35247 0.426222 0.571312 1.35157 0.422025 0.576403 
1.35054 0.417175 0.582287 1.34933 0.411523 0.589143 1.37355 0.417088 0.559363 
1.37102 0.416061 0.562918 1.36822 0.414923 0.566862 1.36505 0.413638 0.571312 
1.36143 0.412169 0.576403 1.35724 0.41047 0.582287 1.34834 0.406857 0.594803 
1.35237 0.408491 0.589143 1.34793 0.404896 0.597175 1.34629 0.397081 0.606626 
1.34436 0.387859 0.617779 1.36372 0.389105 0.597175 1.35687 0.3865 0.606626 
1.34297 0.381211 0.625819 1.34879 0.383427 0.617779 1.34209 0.37694 0.630969 
1.33942 0.363981 0.646595 1.3578 0.361227 0.630969 1.33737 0.354005 0.658625 
1.34626 0.357146 0.646595 1.33628 0.348601 0.665124 1.33257 0.330315 0.687115 
1.35269 0.33219 0.665124 1.33156 0.325327 0.693113 1.33609 0.326798 0.687115 
1.32821 0.308563 0.713228 1.32556 0.295307 0.729133 1.33784 0.29893 0.713228 
1.32307 0.282684 0.744248 1.3194 0.264105 0.766495 1.337 0.26875 0.744248 
1.31701 0.25188 0.781109 1.31311 0.231921 0.804969 1.33248 0.23641 0.781109 
1.30987 0.215213 0.824918 1.30672 0.198979 0.844301 1.32289 0.202193 0.824918 
1.30144 0.171565 0.876993 1.30028 0.16553 0.88419 1.30646 0.166551 0.876993 
1.29382 0.131839 0.924341 1.29149 0.119616 0.938899 1.28739 0.0981787 0.964431 
1.31065 0.100455 0.938899 1.28102 0.0648171 1.00416 1.27968 0.0578177 1.0125 
1.27475 0.0320118 1.04324 1.26861 1.11022e-18 1.08139 1.37596 0.424039 0.55 
1.37545 0.421548 0.553 1.37493 0.418982 0.55609 1.38023 0.419772 0.55 
1.37809 0.418913 0.553 1.37463 0.417526 0.557844 1.37588 0.418028 0.55609 
1.37438 0.416261 0.559363 1.37378 0.413301 0.562918 1.37312 0.410017 0.566862 
1.37238 0.406311 0.571312 1.37152 0.402072 0.576403 1.37054 0.397172 0.582287 
1.36939 0.391464 0.589143 1.39357 0.400342 0.55609 1.39119 0.399448 0.559363 
1.3886 0.398478 0.562918 1.38574 0.397401 0.566862 1.3825 0.396186 0.571312 
1.3788 0.394796 0.576403 1.37452 0.39319 0.582287 1.36935 0.391247 0.589403 
1.36954 0.391318 0.589143 1.36807 0.384757 0.597175 1.36651 0.376866 0.606626 
1.36467 0.367553 0.617779 1.3888 0.372057 0.589143 1.38284 0.369981 0.597175 
1.37583 0.367539 0.606626 1.36384 0.36336 0.6228 1.36756 0.364657 0.617779 
1.36251 0.35652 0.630969 1.35997 0.343435 0.646595 1.37854 0.340489 0.630969 
1.35813 0.333958 0.657912 1.3667 0.336701 0.646595 1.35697 0.327907 0.665124 
1.35343 0.309458 0.687115 1.37507 0.309803 0.665124 1.35222 0.30317 0.69461 
1.35803 0.304856 0.687115 1.34925 0.28752 0.713228 1.34615 0.271164 0.732686 
1.3616 0.275169 0.713228 1.34432 0.26143 0.744248 1.33995 0.23814 0.77191 
1.36249 0.243263 0.744248 1.33851 0.230386 0.781109 1.33365 0.204332 0.812018 
1.35952 0.20937 0.781109 1.33164 0.193445 0.824918 1.3273 0.169996 0.852704 
1.35122 0.173865 0.824918 1.32352 0.149484 0.876993 1.32093 0.135406 0.893664 
1.3357 0.137304 0.876993 1.31458 0.10084 0.93458 1.31391 0.0971901 0.938899 
1.3083 0.0665771 0.975123 1.3025 0.0350008 1.0125 1.30211 0.0328821 1.01501 
1.30454 0.0329574 1.0125 1.29606 1.11022e-18 1.05394 1.39617 0.403832 0.55 
1.39569 0.401314 0.553 1.398 0.401996 0.55 1.39565 0.401124 0.553226 
1.39582 0.401185 0.553 1.3952 0.398713 0.55609 1.39468 0.395959 0.559363 
1.39412 0.392966 0.562918 1.39349 0.389647 0.566862 1.39279 0.385901 0.571312 
1.39198 0.381616 0.576403 1.39105 0.376663 0.582287 1.4157 0.381298 0.553 
1.4134 0.380508 0.55609 1.41097 0.379672 0.559363 1.40832 0.378763 0.562918 
1.40538 0.377756 0.566862 1.40207 0.376619 0.571312 1.39828 0.375318 0.576403 
1.39028 0.372572 0.587148 1.3939 0.373814 0.582287 1.38997 0.370889 0.589143 
1.38871 0.364113 0.597175 1.38723 0.356139 0.606626 1.38549 0.34673 0.617779 
1.41033 0.350529 0.589143 1.40422 0.348605 0.597175 1.39703 0.346342 0.606626 
[...]
POINT_DATA 980
FIELD FieldData 5
pressure 1 980 float
0.116925 0.117032 0.117039 0.117218 0.117298 0.117495 0.117751 0.117853 0.118755 
0.118737 0.118482 0.118337 0.118201 0.117913 0.117964 0.118126 0.118677 0.119215 
0.119974 0.119951 0.119754 0.119722 0.119761 0.119811 0.119852 0.119838 0.119186 
0.119644 0.119181 0.119654 0.120485 0.12147 0.121236 0.121029 0.120913 0.1208 
0.120548 0.120532 0.121128 0.122926 0.122309 0.122737 0.121686 0.122881 0.124689 
0.124415 0.123849 0.126047 0.124086 0.128259 0.125219 0.130847 0.126911 0.131858 
0.135681 0.128982 0.136656 0.140392 0.132118 0.142324 0.145642 0.139956 0.150968 
0.155722 0.153296 0.16223 0.163933 0.162989 0.168871 0.16944 0.172549 0.16988 
0.175101 0.175189 0.175024 0.177752 0.17931 0.179296 0.179148 0.179476 0.179629 
0.179632 0.17924 0.120257 0.120526 0.12063 0.120901 0.121226 0.121515 0.122105 
0.122067 0.121839 0.121756 0.1217 0.121574 0.121613 0.121745 0.122001 0.122436 
0.123019 0.123907 0.123677 0.123619 0.123541 0.123477 0.123401 0.123358 0.123298 
0.123126 0.123174 0.123498 0.123928 0.125603 0.125385 0.125069 0.124503 0.124776 
0.124669 0.125128 0.127295 0.12695 0.125491 0.126066 0.125695 0.127091 0.127927 
0.127471 0.127204 0.129321 0.133468 0.130652 0.130008 0.136018 0.140543 0.14285 
0.146705 0.154867 0.157951 0.158651 0.163375 0.163995 0.166504 0.167834 0.167688 
0.16985 0.170031 0.172423 0.170933 0.173885 0.174403 0.173715 0.176614 0.177673 
0.177927 0.17725 0.178775 0.179214 0.179213 0.123807 0.12392 0.123935 0.124026 
0.124076 0.124322 0.124583 0.124913 0.125284 0.125718 0.126284 0.126245 0.12601 
0.125961 0.125903 0.125869 0.125808 0.125733 0.125738 0.12608 0.12646 0.126966 
0.128766 0.128485 0.128201 0.127937 0.127735 0.127384 0.127554 0.127667 0.128449 
0.129025 0.13165 0.130756 0.129969 0.12906 0.129137 0.133388 0.145994 0.134424 
0.140389 0.135991 0.149165 0.16286 0.151843 0.155472 0.155838 0.16222 0.165575 
0.162401 0.165239 0.16711 0.166448 0.168265 0.169141 0.16935 0.170047 0.170183 
0.170938 0.170951 0.172801 0.17353 0.174433 0.173517 0.176152 0.176768 0.177527 
0.176508 0.178574 0.178804 0.178721 0.127761 0.128105 0.128184 0.128458 0.128679 
0.129856 0.129798 0.129415 0.12924 0.128836 0.129 0.129092 0.129895 0.13064 
0.131251 0.131684 0.138793 0.138115 0.137391 0.136445 0.135375 0.134131 0.13196 
0.132791 0.133398 0.13906 0.144737 0.155547 0.153512 0.147742 0.150426 0.149503 
0.156894 0.166209 0.163938 0.165583 0.164158 0.166404 0.168765 0.167718 0.168218 
0.16755 0.168159 0.168939 0.168498 0.169475 0.170181 0.170147 0.170634 0.171588 
0.17096 0.171409 0.17171 0.172024 0.172294 0.172251 0.173298 0.173594 0.174804 
0.173891 0.176231 0.176476 0.177715 0.178593 0.137335 0.138306 0.138495 0.140176 
0.14006 0.138935 0.139102 0.139676 0.141195 0.143109 0.145436 0.148344 0.151973 
0.156484 0.156599 0.156793 0.156912 0.157067 0.157218 0.15727 0.157111 0.15665 
0.156681 0.158306 0.160633 0.164267 0.165601 0.165963 0.166288 0.1663 0.166352 
0.16678 0.167821 0.168625 0.168785 0.168753 0.16889 0.169052 0.169569 0.169238 
0.169311 0.169804 0.170407 0.170722 0.170854 0.171686 0.172143 0.171918 0.171937 
0.172845 0.1721 0.172538 0.172997 0.172964 0.173312 0.173427 0.173874 0.173972 
0.175541 0.176679 0.176795 0.176717 0.17836 0.155381 0.156848 0.157048 0.156937 
0.156964 0.157247 0.158171 0.159072 0.160114 0.161267 0.162593 0.164151 0.163884 
0.163781 0.163919 0.164015 0.164205 0.164438 0.164749 0.165479 0.165155 0.16572 
0.166506 0.167313 0.168137 0.167873 0.167996 0.168166 0.168505 0.168408 0.168836 
0.169224 0.169645 0.169589 0.169572 0.169709 0.170296 0.170769 0.170744 0.171411 
0.172194 0.172485 0.172344 0.172861 0.172883 0.173041 0.173093 0.173529 0.173717 
0.174035 0.174321 0.174736 0.175033 0.174935 0.176462 0.177501 0.178125 0.178017 
0.163598 0.163896 0.163916 0.164013 0.164228 0.164678 0.165088 0.165585 0.166108 
0.166699 0.167315 0.16761 0.167647 0.167631 0.16765 0.167658 0.167699 0.167855 
0.167762 0.167941 0.168459 0.168959 0.169418 0.169827 0.169761 0.169682 0.169715 
0.169799 0.17018 0.170834 0.170876 0.170834 0.170834 0.171684 0.17248 0.172461 
0.172732 0.173209 0.17323 0.173268 0.17357 0.173572 0.173742 0.17388 0.173945 
0.174041 0.174341 0.174391 0.175048 0.175547 0.176237 0.176097 0.17799 0.167368 
0.167643 0.167694 0.167665 0.167668 0.167815 0.168081 0.168314 0.168589 0.168866 
0.169166 0.169474 0.169787 0.170111 0.170113 0.170107 0.170085 0.170049 0.169993 
0.16989 0.169917 0.170011 0.170234 0.17054 0.170986 0.171132 0.171049 0.171005 
0.171006 0.171513 0.172252 0.172649 0.172548 0.172585 0.172964 0.173493 0.173815 
0.173506 0.173522 0.173832 0.173946 0.174059 0.174189 0.174266 0.174536 0.174501 
0.174641 0.174847 0.175162 0.175323 0.175403 0.17614 0.176532 0.177949 0.169659 
0.169822 0.170004 0.170059 0.170064 0.170102 0.170084 0.170175 0.170305 0.170434 
0.17056 0.170691 0.17083 0.17099 0.17119 0.171313 0.171331 0.171342 0.171338 
0.171298 0.171212 0.171218 0.171387 0.171702 0.172242 0.172588 0.172561 0.17264 
0.172593 0.172916 0.173523 0.17388 0.174028 0.173954 0.174116 0.174198 0.174352 
0.17439 0.174624 0.174805 0.174743 0.174924 0.175066 0.175487 0.175929 0.176349 
0.176494 0.177864 0.1779 0.177899 0.170813 0.170905 0.171013 0.171125 0.17125 
0.17123 0.171235 0.171255 0.171272 0.171302 0.171295 0.171359 0.171468 0.171601 
0.17177 0.171975 0.172239 0.1724 0.172471 0.17253 0.172588 0.17257 0.172592 
0.172951 0.173403 0.173934 0.174074 0.174009 0.174023 0.174015 0.174379 0.174647 
0.174833 0.174666 0.174752 0.174736 0.17486 0.175154 0.174916 0.175248 0.175249 
0.175251 0.175684 0.175686 0.175686 0.17651 0.176805 0.177995 0.171644 0.171716 
0.171794 0.171889 0.171996 0.172125 0.172281 0.172405 0.172381 0.172352 0.172349 
0.172341 0.172346 0.172373 0.172358 0.172476 0.172724 0.173015 0.173351 0.17372 
0.173926 0.174 0.174077 0.174057 0.174097 0.17436 0.174584 0.175064 0.174828 
0.174864 0.174894 0.175145 0.175233 0.175359 0.175281 0.175401 0.175444 0.17549 
0.175776 0.175906 0.176017 0.176376 0.17663 0.176686 0.177968 0.178084 0.178091 
0.172689 0.172758 0.172824 0.172925 0.17303 0.173165 0.173321 0.173519 0.173776 
0.173997 0.17394 0.173911 0.173874 0.173851 0.173827 0.173822 0.17388 0.173857 
0.174052 0.174339 0.174632 0.174895 0.175107 0.175132 0.175084 0.175128 0.175106 
0.175171 0.175293 0.175613 0.175374 0.175409 0.17551 0.17572 0.175799 0.175736 
0.175782 0.1759 0.176105 0.176226 0.176369 0.176769 0.176904 0.177289 0.178143 
0.178191 0.173952 0.174009 0.174045 0.174021 0.174063 0.174139 0.174213 0.174308 
0.174411 0.174532 0.174689 0.174883 0.175274 0.175217 0.175151 0.175103 0.175106 
0.175084 0.175113 0.175324 0.175504 0.175638 0.175873 0.175679 0.175792 0.17568 
0.17566 0.175798 0.175905 0.1758 0.176121 0.176298 0.176348 0.176461 0.176925 
0.177061 0.178201 0.175028 0.175079 0.175118 0.17519 0.175259 0.175481 0.17544 
0.175383 0.175356 0.175299 0.175317 0.175327 0.175382 0.175434 0.175502 0.17559 
0.175701 0.17585 0.176084 0.176001 0.175931 0.1759 0.175903 0.175976 0.176045 
0.176054 0.176307 0.176035 0.17615 0.176027 0.176124 0.176296 0.176289 0.176537 
0.177047 0.177006 0.17705 0.17705 0.17804 0.178254 0.178264 0.175888 0.175918 
0.175931 0.175978 0.176015 0.176061 0.176102 0.176136 0.17644 0.176411 0.176359 
0.176343 0.17631 0.176278 0.176233 0.176147 0.17617 0.176152 0.176168 0.176191 
0.176237 0.176318 0.176498 0.176423 0.176357 0.176377 0.176399 0.176444 0.176459 
0.176718 0.176463 0.176507 0.17658 0.177005 0.17703 0.177013 0.17786 0.178245 
0.178222 0.176491 0.176504 0.176494 0.176523 0.176538 0.176557 0.176567 0.176566 
0.176554 0.176554 0.176822 0.176802 0.176769 0.176719 0.176649 0.176555 0.17658 
0.176557 0.176576 0.176634 0.176739 0.176871 0.176822 0.176784 0.176798 0.176856 
0.176963 0.177074 0.177199 0.177157 0.177759 0.178124 0.178072 0.176767 0.176794 
0.176794 0.176837 0.176833 0.17684 0.176818 0.176841 0.17684 0.176852 0.17687 
0.17688 0.176881 0.176868 0.176859 0.176863 0.177134 0.177073 0.177005 0.176882 
0.176937 0.176888 0.176944 0.177057 0.177237 0.177246 0.177242 0.177264 0.177266 
0.177469 0.17787 0.177954 0.178007 0.177998 0.176967 0.176992 0.176991 0.177035 
0.177067 0.177109 0.177145 0.177113 0.177118 0.177099 0.177122 0.177132 0.177149 
0.177155 0.177155 0.177164 0.177156 0.17715 0.177156 0.17718 0.177375 0.177326 
0.177247 0.177277 0.177254 0.177405 0.177657 0.177808 0.177938 0.177877 0.177159 
0.17718 0.17718 0.17722 0.177249 0.17729 0.177323 0.177366 0.177396 0.177317 
0.177311 0.177335 0.17735 0.177373 0.177389 0.17741 0.177405 0.177411 0.177418 
0.177455 0.177518 0.177638 0.177762 0.177761 0.177798 0.177772 0.177287 0.177315 
0.177297 0.177321 0.177339 0.177385 0.177426 0.177477 0.177525 0.177581 0.177639 
0.177699 0.177699 0.177717 0.17773 0.177742 0.177757 0.177764 0.177759 0.177506 
0.17755 0.177591 0.177644 0.177631 0.177645 0.177657 0.177696 0.177675 
velocity_u 1 980 float
0.669048 0.73195 0.668504 0.858208 0.969529 1.02342 1.04767 1.05643 0.659479 
0.850302 0.965112 1.02132 1.04685 1.05719 1.05628 1.05868 1.0584 1.05801 
0.650621 0.841512 0.958761 1.01713 1.04385 1.05379 1.05667 1.05709 1.05796 
1.05751 1.05794 1.05739 1.0562 1.05475 1.05549 1.0559 1.05595 1.0561 
1.05615 1.05614 1.05595 1.05372 1.05435 1.05465 1.05543 1.05452 1.05238 
1.05275 1.05343 1.05094 1.05294 1.04862 1.05165 1.04608 1.04991 1.04517 
1.04144 1.04808 1.04044 1.03662 1.04488 1.03456 1.03125 1.03658 1.02602 
1.02126 1.02352 1.01517 1.01354 1.01446 1.00884 1.00829 1.00518 1.00792 
1.00266 1.00258 1.00274 1.0002 0.998786 0.998808 0.998952 0.998771 0.998773 
0.998814 0.999249 0.649105 0.838405 0.955276 1.01396 1.0411 1.05142 0.639599 
0.830389 0.950575 1.01169 1.04021 1.05219 1.05128 1.05442 1.05464 1.05434 
1.05359 0.819224 0.942002 1.00594 1.03641 1.04864 1.05246 1.05313 1.05338 
1.05347 1.05341 1.05313 1.05276 1.05089 1.05105 1.05149 1.05255 1.05192 
1.05249 1.05202 1.04948 1.05019 1.05144 1.05101 1.05115 1.04969 1.04878 
1.04935 1.04956 1.04767 1.04261 1.04633 1.04689 1.04056 1.03578 1.03308 
1.03002 1.02202 1.01894 1.01855 1.01415 1.01365 1.01123 1.00997 1.01016 
1.00796 1.00778 1.00538 1.00693 1.00397 1.00349 1.00417 1.00144 1.00047 
1.00026 1.00092 0.999564 0.99927 0.999278 0.629431 0.73644 0.628632 0.818566 
0.940249 1.00383 1.03436 1.04667 1.05028 1.05054 0.616074 0.806335 0.931775 
0.998887 1.03171 1.04533 1.04967 1.05053 1.05052 1.05039 1.04995 1.04961 
1.04147 1.04664 1.04789 1.04844 1.04863 1.04932 1.04901 1.0491 1.04864 
1.04784 1.04487 1.04601 1.04708 1.04778 1.04772 1.04279 1.02929 1.04157 
1.03509 1.04013 1.02716 1.0141 1.02424 1.02076 1.02099 1.01503 1.01211 
1.01488 1.01253 1.01069 1.01128 1.00954 1.00863 1.00855 1.00784 1.00774 
1.00693 1.00692 1.00508 1.00444 1.0036 1.00451 1.002 1.00144 1.00076 
1.00175 0.999836 0.999716 0.999809 0.610153 0.798499 0.924087 0.992389 1.02662 
0.6019 0.791465 0.919761 0.990346 1.03674 1.02602 1.04107 1.04513 1.04535 
1.04499 1.04454 0.970557 1.01196 1.03101 1.03805 1.04038 1.04197 1.04445 
1.04337 1.0431 1.03748 1.03149 1.02093 1.02283 1.0278 1.02559 1.02605 
1.01975 1.01074 1.0132 1.01184 1.01291 1.01092 1.00869 1.00985 1.00935 
1.01038 1.00977 1.00919 1.00933 1.00836 1.00768 1.00768 1.0073 1.00632 
1.00699 1.00651 1.00625 1.00588 1.00561 1.00566 1.0047 1.00446 1.00333 
1.00423 1.00202 1.00179 1.00063 0.999885 0.58049 0.76505 0.89488 0.572288 
0.75954 0.93468 0.893185 0.968923 1.00751 1.02425 1.02865 1.02729 1.02411 
1.01975 0.853589 0.937086 0.984545 1.0075 1.01624 1.01826 1.01895 1.0196 
1.01956 1.0184 1.0163 1.01255 1.01188 1.01162 1.01127 1.01062 1.0106 
1.0103 1.0099 1.00883 1.00884 1.00916 1.00856 1.00875 1.00779 1.00867 
1.00847 1.00826 1.00747 1.00724 1.00704 1.00625 1.00585 1.00601 1.00604 
1.00514 1.00588 1.00543 1.00503 1.00496 1.00463 1.00451 1.00424 1.00416 
1.00268 1.00161 1.0015 1.00158 1.00005 0.539568 0.718702 0.53607 0.728312 
0.718424 0.851706 0.933542 0.98057 1.00406 1.01256 1.01377 1.01309 0.697523 
0.831696 0.917633 0.970703 0.999228 1.00975 1.01205 1.01201 1.01233 1.01176 
1.01103 1.01001 1.00878 1.00929 1.00931 1.0089 1.00858 1.00845 1.00865 
1.0084 1.008 1.00778 1.0079 1.00767 1.00765 1.00725 1.00727 1.00658 
1.0058 1.00553 1.00566 1.00512 1.0051 1.00498 1.00493 1.00445 1.00423 
1.004 1.00364 1.00347 1.00319 1.00328 1.00183 1.00082 1.00023 1.00031 
0.518941 0.621368 0.518066 0.697211 0.830271 0.914763 0.967277 0.99624 1.00747 
1.00988 1.00989 0.819865 0.90391 0.959467 0.991984 1.00542 1.00879 1.0093 
1.0094 1.00922 1.00883 1.00808 1.00788 1.00736 1.00716 1.00787 1.00766 
1.00784 1.00724 1.00668 1.00643 1.00668 1.00668 1.0064 1.00559 1.00572 
1.00529 1.00486 1.00484 1.0048 1.00443 1.00444 1.00427 1.00419 1.00411 
1.00403 1.00363 1.00358 1.00312 1.00271 1.00205 1.0022 1.00033 0.511426 
0.688904 0.510829 0.69966 0.688848 0.819127 0.901948 0.956657 0.989281 1.00344 
1.00715 1.00766 1.00735 0.892205 0.948622 0.984505 1.0013 1.00611 1.00709 
1.00726 1.00721 1.00718 1.00683 1.00707 1.00668 1.0061 1.00673 1.00665 
1.00666 1.00588 1.00555 1.00482 1.00543 1.00527 1.00517 1.00456 1.00429 
1.00454 1.00453 1.00426 1.00412 1.00404 1.00382 1.00378 1.00348 1.00358 
1.0034 1.00324 1.00289 1.00277 1.00267 1.00215 1.00176 1.00034 0.507148 
0.684007 0.811234 0.50654 0.683557 0.848533 0.810933 0.891732 0.947198 0.982714 
0.999958 1.00522 1.00627 1.0062 1.00599 0.976676 0.997339 1.00423 1.00574 
1.00589 1.00597 1.00596 1.00589 1.00605 1.00532 1.0049 1.00525 1.00485 
1.00495 1.00462 1.00449 1.00424 1.00411 1.00414 1.00397 1.0039 1.00374 
1.00372 1.00342 1.0033 1.00328 1.00315 1.00301 1.00258 1.00223 1.00191 
1.00175 1.00041 1.00037 1.00037 0.504785 0.681245 0.805288 0.883148 0.938417 
0.503859 0.68037 0.803866 0.881864 0.953631 0.938002 0.976257 0.996706 1.00374 
1.00522 1.00515 1.00499 1.00226 1.0044 1.00456 1.0049 1.00467 1.0049 
1.00479 1.00415 1.00391 1.0035 1.00352 1.00389 1.00385 1.00375 1.00338 
1.00331 1.00336 1.00326 1.00336 1.00325 1.00294 1.0032 1.00279 1.00279 
1.00279 1.00239 1.00239 1.00239 1.00172 1.00144 1.00027 0.502829 0.678967 
0.800204 0.875715 0.930436 0.969805 0.993137 0.500929 0.677017 0.797198 0.872313 
0.927651 0.968337 0.997177 0.992846 1.00212 1.0041 1.00407 1.00396 1.00378 
1.00313 1.00337 1.0035 1.00347 1.00348 1.00323 1.00342 1.00265 1.00331 
1.00323 1.00324 1.00288 1.00284 1.00266 1.00282 1.00274 1.00269 1.00265 
1.00227 1.00215 1.00203 1.00178 1.00157 1.0015 1.00029 1.00017 1.00017 
0.500225 0.675905 0.79491 0.868579 0.922753 0.96329 0.989202 1.00025 1.00285 
0.672521 0.790243 0.86319 0.917658 0.95956 0.9874 0.999705 1.00288 1.00275 
1.00302 1.00304 1.00284 1.00264 1.00233 1.0023 1.00259 1.00237 1.00261 
1.00289 1.00276 1.00243 1.00265 1.00262 1.00255 1.00241 1.00234 1.0024 
1.00235 1.00223 1.00197 1.00189 1.00173 1.00141 1.00126 1.0009 1.00008 
0.999997 0.497328 0.628845 0.497124 0.67243 0.789564 0.861612 0.91508 0.95631 
0.984506 0.997996 1.00171 1.00227 0.949576 0.980441 0.996438 1.00117 1.00232 
1.00208 1.00233 1.00211 1.00208 1.00218 1.00179 1.00231 1.00207 1.00236 
1.00239 1.00234 1.00216 1.00234 1.00197 1.0018 1.00172 1.00169 1.00125 
1.00111 0.999984 0.494135 0.668641 0.784019 0.854627 0.907418 0.49277 0.667355 
0.782585 0.853481 0.927637 0.906972 0.949061 0.979212 0.995388 1.00057 1.00156 
1.0017 1.0016 0.999586 1.00114 1.00146 1.00161 1.00154 1.00171 1.00182 
1.00192 1.00158 1.00197 1.00181 1.00204 1.00201 1.00181 1.00185 1.00156 
1.00118 1.00116 1.00117 1.00117 1.00012 0.999913 0.999899 0.490721 0.664562 
0.77807 0.847167 0.899151 0.941025 0.973031 0.992328 0.487534 0.661265 0.773952 
0.842835 0.895275 0.938213 0.971687 0.994387 0.992154 0.999407 1.00092 1.0012 
1.0013 1.00147 1.00088 1.00115 1.00149 1.00143 1.00149 1.00153 1.00162 
1.00127 1.00163 1.00157 1.0016 1.00116 1.00121 1.00115 1.00033 0.99993 
0.999957 0.487077 0.660318 0.77202 0.839665 0.890814 0.932706 0.966092 0.988393 
0.998039 1.00035 0.883167 0.926054 0.961421 0.98635 0.997617 1.00049 1.00031 
1.00083 1.00102 1.00116 1.00117 1.00077 1.00097 1.00116 1.00111 1.00118 
1.00118 1.00115 1.00099 1.00107 1.00038 1.00003 1.00006 0.483354 0.656013 
0.765885 0.83205 0.482209 0.655107 0.765189 0.837724 0.831956 0.882314 0.924056 
0.958459 0.983499 0.996178 0.999767 1.00054 0.978314 0.994559 0.999449 1.00072 
1.00047 1.00076 1.00088 1.00094 1.00093 1.00064 1.00082 1.00092 1.00091 
1.00069 1.00029 1.00016 1.00014 1.00016 0.479581 0.651709 0.759883 0.824584 
0.873798 0.915083 0.950106 0.476828 0.648984 0.756724 0.821445 0.871175 0.913422 
0.957983 0.949719 0.97733 0.993263 0.998811 1.00015 1.00049 0.997604 0.999879 
1.00062 1.0004 1.00063 1.00064 1.00047 1.00022 1.00018 1.00023 0.475675 
0.647245 0.753624 0.816638 0.864437 0.904672 0.93947 0.968425 0.988499 0.64288 
0.747996 0.810274 0.857974 0.898808 0.934998 0.966063 0.991577 0.988108 0.997417 
0.999676 1.00016 1.00027 0.999164 0.99991 1.00021 1.00015 0.471792 0.605889 
0.47151 0.643027 0.748742 0.811346 0.858895 0.898889 0.93373 0.963223 0.98499 
0.995982 0.861781 0.899206 0.932344 0.961119 0.983624 0.998323 0.995688 0.477626 
0.650382 0.755213 0.816352 0.480031 0.652412 0.756429 0.854843 0.816809 
velocity_v 1 980 float
-0.144918 -0.158221 -0.144503 -0.184901 -0.175685 -0.150472 -0.134326 -0.127794 -0.138231 
-0.178275 -0.172905 -0.149408 -0.133824 -0.126948 -0.127643 -0.125085 -0.124045 -0.12321 
-0.132922 -0.172003 -0.16953 -0.147737 -0.131897 -0.124811 -0.122473 -0.122223 -0.123421 
-0.12261 -0.123496 -0.122886 -0.122555 -0.120004 -0.119936 -0.120483 -0.120944 -0.121214 
-0.12248 -0.122501 -0.121507 -0.118003 -0.119529 -0.119544 -0.120602 -0.119349 -0.115919 
-0.116091 -0.117406 -0.113652 -0.116793 -0.110309 -0.115181 -0.106244 -0.11252 -0.104585 
-0.0983514 -0.109097 -0.09664 -0.0902866 -0.103565 -0.0868601 -0.0800146 -0.0893385 -0.0707912 
-0.0628917 -0.0658457 -0.0508213 -0.0480422 -0.0487788 -0.0399474 -0.0390735 -0.0341554 -0.0367508 
-0.030411 -0.0302564 -0.0304366 -0.02602 -0.0229447 -0.0225648 -0.0230398 -0.0157476 -0.00867075 
-0.00653763 -0.0070035 -0.131942 -0.169603 -0.167307 -0.146083 -0.129942 -0.122208 -0.125789 
-0.163408 -0.164294 -0.144901 -0.129329 -0.121514 -0.12206 -0.119556 -0.118659 -0.118159 
-0.117513 -0.154904 -0.158987 -0.142135 -0.126828 -0.119104 -0.116877 -0.116405 -0.116754 
-0.117407 -0.117267 -0.117092 -0.116859 -0.113192 -0.113777 -0.114632 -0.115934 -0.115438 
-0.115689 -0.115331 -0.111309 -0.11208 -0.11476 -0.11384 -0.114384 -0.112102 -0.110661 
-0.111486 -0.111897 -0.108168 -0.10023 -0.105887 -0.106745 -0.0949444 -0.0866516 -0.0801461 
-0.0753109 -0.0603712 -0.0533382 -0.055915 -0.0475565 -0.045977 -0.0412326 -0.0391966 -0.0386093 
-0.0365519 -0.0362573 -0.0325146 -0.0333794 -0.0302951 -0.0294297 -0.0301006 -0.0258863 -0.0237959 
-0.0217687 -0.0238794 -0.0144522 -0.007335 -0.00701612 -0.119305 -0.139214 -0.118804 -0.154405 
-0.157849 -0.141 -0.125401 -0.116924 -0.113923 -0.112679 -0.110733 -0.145059 -0.152308 
-0.13831 -0.123576 -0.115466 -0.113109 -0.112666 -0.112647 -0.112408 -0.112007 -0.111515 
-0.11085 -0.10875 -0.108646 -0.109377 -0.109894 -0.111053 -0.110544 -0.110673 -0.109592 
-0.108942 -0.103454 -0.105377 -0.107076 -0.108882 -0.108757 -0.0998801 -0.0740995 -0.0982474 
-0.0858692 -0.0952117 -0.0688749 -0.0410835 -0.0631489 -0.0562396 -0.0561581 -0.0453993 -0.0384836 
-0.0444551 -0.0404422 -0.0355386 -0.0410593 -0.0373698 -0.0366685 -0.0356316 -0.0350619 -0.0341898 
-0.0333568 -0.0333408 -0.0306035 -0.029411 -0.0279669 -0.0287159 -0.0251781 -0.0238565 -0.0199244 
-0.0235318 -0.0128025 -0.0071738 -0.00720359 -0.105994 -0.137574 -0.145996 -0.13362 -0.1193 
-0.0993117 -0.130782 -0.142416 -0.132139 -0.11328 -0.118804 -0.110244 -0.106124 -0.104174 
-0.103455 -0.103009 -0.110644 -0.101307 -0.0946514 -0.0937835 -0.0953348 -0.0981898 -0.102803 
-0.101036 -0.0998257 -0.0882356 -0.0766632 -0.053504 -0.0582632 -0.0704904 -0.0649693 -0.0673914 
-0.0533814 -0.0351823 -0.0390731 -0.0361329 -0.0389636 -0.0364623 -0.0328959 -0.0343415 -0.0334813 
-0.0347721 -0.0341755 -0.0329602 -0.0338938 -0.0345012 -0.0314788 -0.0346229 -0.0328273 -0.0317878 