# vtk DataFile Version 5.1
vtk output
ASCII
DATASET STRUCTURED_GRID
DIMENSIONS 12 25 99
POINTS 29700 float
0 3 -0.5 0 2.50043 -0.5 0 2.1244 -0.5 
0 1.84094 -0.5 0 1.62671 -0.5 0 1.46409 -0.5 
0 1.33968 -0.5 0 1.24323 -0.5 0 1.1668 -0.5 
0 1.10412 -0.5 0 1.05 -0.5 0 1 -0.5 
0 3 -0.503 0 2.50043 -0.503 0 2.1244 -0.503 
0 1.84094 -0.503 0 1.62671 -0.503 0 1.46409 -0.503 
0 1.33968 -0.503 0 1.24323 -0.503 0 1.1668 -0.503 
0 1.10412 -0.503 0 1.05 -0.503 0 1 -0.503 
0 3 -0.506095 0 2.50043 -0.506095 0 2.1244 -0.506095 
0 1.84094 -0.506095 0 1.62671 -0.506095 0 1.46409 -0.506095 
0 1.33968 -0.506095 0 1.24323 -0.506095 0 1.1668 -0.506095 
0 1.10412 -0.506095 0 1.05 -0.506095 0 1 -0.506095 
0 3 -0.509384 0 2.50043 -0.509384 0 2.1244 -0.509384 
0 1.84094 -0.509384 0 1.62671 -0.509384 0 1.46409 -0.509384 
0 1.33968 -0.509384 0 1.24323 -0.509384 0 1.1668 -0.509384 
0 1.10412 -0.509384 0 1.05 -0.509384 0 1 -0.509384 
0 3 -0.512971 0 2.50043 -0.512971 0 2.1244 -0.512971 
0 1.84094 -0.512971 0 1.62671 -0.512971 0 1.46409 -0.512971 
0 1.33968 -0.512971 0 1.24323 -0.512971 0 1.1668 -0.512971 
0 1.10412 -0.512971 0 1.05 -0.512971 0 1 -0.512971 
0 3 -0.516969 0 2.50043 -0.516969 0 2.1244 -0.516969 
0 1.84094 -0.516969 0 1.62671 -0.516969 0 1.46409 -0.516969 
0 1.33968 -0.516969 0 1.24323 -0.516969 0 1.1668 -0.516969 
0 1.10412 -0.516969 0 1.05 -0.516969 0 1 -0.516969 
0 3 -0.521506 0 2.50043 -0.521506 0 2.1244 -0.521506 
0 1.84094 -0.521506 0 1.62671 -0.521506 0 1.46409 -0.521506 
0 1.33968 -0.521506 0 1.24323 -0.521506 0 1.1668 -0.521506 
0 1.10412 -0.521506 0 1.05 -0.521506 0 1 -0.521506 
0 3 -0.526726 0 2.50043 -0.526726 0 2.1244 -0.526726 
0 1.84094 -0.526726 0 1.62671 -0.526726 0 1.46409 -0.526726 
0 1.33968 -0.526726 0 1.24323 -0.526726 0 1.1668 -0.526726 
0 1.10412 -0.526726 0 1.05 -0.526726 0 1 -0.526726 
0 3 -0.532795 0 2.50043 -0.532795 0 2.1244 -0.532795 
0 1.84094 -0.532795 0 1.62671 -0.532795 0 1.46409 -0.532795 
0 1.33968 -0.532795 0 1.24323 -0.532795 0 1.1668 -0.532795 
0 1.10412 -0.532795 0 1.05 -0.532795 0 1 -0.532795 
0 3 -0.539904 0 2.50043 -0.539904 0 2.1244 -0.539904 
0 1.84094 -0.539904 0 1.62671 -0.539904 0 1.46409 -0.539904 
0 1.33968 -0.539904 0 1.24323 -0.539904 0 1.1668 -0.539904 
0 1.10412 -0.539904 0 1.05 -0.539904 0 1 -0.539904 
0 3 -0.548281 0 2.50043 -0.548281 0 2.1244 -0.548281 
0 1.84094 -0.548281 0 1.62671 -0.548281 0 1.46409 -0.548281 
0 1.33968 -0.548281 0 1.24323 -0.548281 0 1.1668 -0.548281 
0 1.10412 -0.548281 0 1.05 -0.548281 0 1 -0.548281 
0 3 -0.55819 0 2.50043 -0.55819 0 2.1244 -0.55819 
0 1.84094 -0.55819 0 1.62671 -0.55819 0 1.46409 -0.55819 
0 1.33968 -0.55819 0 1.24323 -0.55819 0 1.1668 -0.55819 
0 1.10412 -0.55819 0 1.05 -0.55819 0 1 -0.55819 
0 3 -0.569947 0 2.50043 -0.569947 0 2.1244 -0.569947 
0 1.84094 -0.569947 0 1.62671 -0.569947 0 1.46409 -0.569947 
0 1.33968 -0.569947 0 1.24323 -0.569947 0 1.1668 -0.569947 
0 1.10412 -0.569947 0 1.05 -0.569947 0 1 -0.569947 
0 3 -0.583924 0 2.50043 -0.583924 0 2.1244 -0.583924 
0 1.84094 -0.583924 0 1.62671 -0.583924 0 1.46409 -0.583924 
0 1.33968 -0.583924 0 1.24323 -0.583924 0 1.1668 -0.583924 
0 1.10412 -0.583924 0 1.05 -0.583924 0 1 -0.583924 
0 3 -0.600565 0 2.50043 -0.600565 0 2.1244 -0.600565 
0 1.84094 -0.600565 0 1.62671 -0.600565 0 1.46409 -0.600565 
0 1.33968 -0.600565 0 1.24323 -0.600565 0 1.1668 -0.600565 
0 1.10412 -0.600565 0 1.05 -0.600565 0 1 -0.600565 
0 3 -0.6204 0 2.50043 -0.6204 0 2.1244 -0.6204 
0 1.84094 -0.6204 0 1.62671 -0.6204 0 1.46409 -0.6204 
0 1.33968 -0.6204 0 1.24323 -0.6204 0 1.1668 -0.6204 
0 1.10412 -0.6204 0 1.05 -0.6204 0 1 -0.6204 
0 3 -0.644057 0 2.50043 -0.644057 0 2.1244 -0.644057 
0 1.84094 -0.644057 0 1.62671 -0.644057 0 1.46409 -0.644057 
0 1.33968 -0.644057 0 1.24323 -0.644057 0 1.1668 -0.644057 
0 1.10412 -0.644057 0 1.05 -0.644057 0 1 -0.644057 
0 3 -0.672287 0 2.50043 -0.672287 0 2.1244 -0.672287 
0 1.84094 -0.672287 0 1.62671 -0.672287 0 1.46409 -0.672287 
0 1.33968 -0.672287 0 1.24323 -0.672287 0 1.1668 -0.672287 
0 1.10412 -0.672287 0 1.05 -0.672287 0 1 -0.672287 
0 3 -0.705987 0 2.50043 -0.705987 0 2.1244 -0.705987 
0 1.84094 -0.705987 0 1.62671 -0.705987 0 1.46409 -0.705987 
0 1.33968 -0.705987 0 1.24323 -0.705987 0 1.1668 -0.705987 
0 1.10412 -0.705987 0 1.05 -0.705987 0 1 -0.705987 
0 3 -0.746226 0 2.50043 -0.746226 0 2.1244 -0.746226 
0 1.84094 -0.746226 0 1.62671 -0.746226 0 1.46409 -0.746226 
0 1.33968 -0.746226 0 1.24323 -0.746226 0 1.1668 -0.746226 
0 1.10412 -0.746226 0 1.05 -0.746226 0 1 -0.746226 
0 3 -0.794282 0 2.50043 -0.794282 0 2.1244 -0.794282 
0 1.84094 -0.794282 0 1.62671 -0.794282 0 1.46409 -0.794282 
0 1.33968 -0.794282 0 1.24323 -0.794282 0 1.1668 -0.794282 
0 1.10412 -0.794282 0 1.05 -0.794282 0 1 -0.794282 
0 3 -0.851682 0 2.50043 -0.851682 0 2.1244 -0.851682 
0 1.84094 -0.851682 0 1.62671 -0.851682 0 1.46409 -0.851682 
0 1.33968 -0.851682 0 1.24323 -0.851682 0 1.1668 -0.851682 
0 1.10412 -0.851682 0 1.05 -0.851682 0 1 -0.851682 
0 3 -0.920246 0 2.50043 -0.920246 0 2.1244 -0.920246 
0 1.84094 -0.920246 0 1.62671 -0.920246 0 1.46409 -0.920246 
0 1.33968 -0.920246 0 1.24323 -0.920246 0 1.1668 -0.920246 
0 1.10412 -0.920246 0 1.05 -0.920246 0 1 -0.920246 
0 3 -1.00215 0 2.50043 -1.00215 0 2.1244 -1.00215 
0 1.84094 -1.00215 0 1.62671 -1.00215 0 1.46409 -1.00215 
0 1.33968 -1.00215 0 1.24323 -1.00215 0 1.1668 -1.00215 
0 1.10412 -1.00215 0 1.05 -1.00215 0 1 -1.00215 
0 3 -1.1 0 2.50043 -1.1 0 2.1244 -1.1 
0 1.84094 -1.1 0 1.62671 -1.1 0 1.46409 -1.1 
0 1.33968 -1.1 0 1.24323 -1.1 0 1.1668 -1.1 
0 1.10412 -1.1 0 1.05 -1.1 0 1 -1.1 
0.0015 3 -0.5 0.0018332 2.50073 -0.5 0.002084 2.12492 -0.5 
0.00227307 1.84163 -0.5 0.00241597 1.62752 -0.5 0.00252446 1.46497 -0.5 
0.00260746 1.3406 -0.5 0.00267181 1.24418 -0.5 0.00272281 1.16778 -0.5 
0.00276465 1.1051 -0.5 0.00280077 1.05098 -0.5 0.00283415 1.00098 -0.5 
0.0015 3 -0.503 0.0018332 2.50073 -0.503 0.002084 2.12492 -0.503 
0.00227307 1.84163 -0.503 0.00241597 1.62752 -0.503 0.00252446 1.46497 -0.503 
0.00260746 1.3406 -0.503 0.00267181 1.24418 -0.503 0.00272281 1.16778 -0.503 
0.00276465 1.1051 -0.503 0.00280077 1.05098 -0.503 0.00283415 1.00098 -0.503 
0.0015 3 -0.506095 0.0018332 2.50073 -0.506095 0.002084 2.12492 -0.506095 
0.00227307 1.84163 -0.506095 0.00241597 1.62752 -0.506095 0.00252446 1.46497 -0.506095 
0.00260746 1.3406 -0.506095 0.00267181 1.24418 -0.506095 0.00272281 1.16778 -0.506095 
0.00276465 1.1051 -0.506095 0.00280077 1.05098 -0.506095 0.00283415 1.00098 -0.506095 
0.0015 3 -0.509384 0.0018332 2.50073 -0.509384 0.002084 2.12492 -0.509384 
0.00227307 1.84163 -0.509384 0.00241597 1.62752 -0.509384 0.00252446 1.46497 -0.509384 
0.00260746 1.3406 -0.509384 0.00267181 1.24418 -0.509384 0.00272281 1.16778 -0.509384 
0.00276465 1.1051 -0.509384 0.00280077 1.05098 -0.509384 0.00283415 1.00098 -0.509384 
0.0015 3 -0.512971 0.0018332 2.50073 -0.512971 0.002084 2.12492 -0.512971 
0.00227307 1.84163 -0.512971 0.00241597 1.62752 -0.512971 0.00252446 1.46497 -0.512971 
0.00260746 1.3406 -0.512971 0.00267181 1.24418 -0.512971 0.00272281 1.16778 -0.512971 
0.00276465 1.1051 -0.512971 0.00280077 1.05098 -0.512971 0.00283415 1.00098 -0.512971 
0.0015 3 -0.516969 0.0018332 2.50073 -0.516969 0.002084 2.12492 -0.516969 
0.00227307 1.84163 -0.516969 0.00241597 1.62752 -0.516969 0.00252446 1.46497 -0.516969 
0.00260746 1.3406 -0.516969 0.00267181 1.24418 -0.516969 0.00272281 1.16778 -0.516969 
0.00276465 1.1051 -0.516969 0.00280077 1.05098 -0.516969 0.00283415 1.00098 -0.516969 
0.0015 3 -0.521506 0.0018332 2.50073 -0.521506 0.002084 2.12492 -0.521506 
0.00227307 1.84163 -0.521506 0.00241597 1.62752 -0.521506 0.00252446 1.46497 -0.521506 
0.00260746 1.3406 -0.521506 0.00267181 1.24418 -0.521506 0.00272281 1.16778 -0.521506 
0.00276465 1.1051 -0.521506 0.00280077 1.05098 -0.521506 0.00283415 1.00098 -0.521506 
0.0015 3 -0.526726 0.0018332 2.50073 -0.526726 0.002084 2.12492 -0.526726 
0.00227307 1.84163 -0.526726 0.00241597 1.62752 -0.526726 0.00252446 1.46497 -0.526726 
0.00260746 1.3406 -0.526726 0.00267181 1.24418 -0.526726 0.00272281 1.16778 -0.526726 
0.00276465 1.1051 -0.526726 0.00280077 1.05098 -0.526726 0.00283415 1.00098 -0.526726 
0.0015 3 -0.532795 0.0018332 2.50073 -0.532795 0.002084 2.12492 -0.532795 
0.00227307 1.84163 -0.532795 0.00241597 1.62752 -0.532795 0.00252446 1.46497 -0.532795 
0.00260746 1.3406 -0.532795 0.00267181 1.24418 -0.532795 0.00272281 1.16778 -0.532795 
0.00276465 1.1051 -0.532795 0.00280077 1.05098 -0.532795 0.00283415 1.00098 -0.532795 
0.0015 3 -0.539904 0.0018332 2.50073 -0.539904 0.002084 2.12492 -0.539904 
0.00227307 1.84163 -0.539904 0.00241597 1.62752 -0.539904 0.00252446 1.46497 -0.539904 
0.00260746 1.3406 -0.539904 0.00267181 1.24418 -0.539904 0.00272281 1.16778 -0.539904 
0.00276465 1.1051 -0.539904 0.00280077 1.05098 -0.539904 0.00283415 1.00098 -0.539904 
0.0015 3 -0.548281 0.0018332 2.50073 -0.548281 0.002084 2.12492 -0.548281 
0.00227307 1.84163 -0.548281 0.00241597 1.62752 -0.548281 0.00252446 1.46497 -0.548281 
0.00260746 1.3406 -0.548281 0.00267181 1.24418 -0.548281 0.00272281 1.16778 -0.548281 
0.00276465 1.1051 -0.548281 0.00280077 1.05098 -0.548281 0.00283415 1.00098 -0.548281 
0.0015 3 -0.55819 0.0018332 2.50073 -0.55819 0.002084 2.12492 -0.55819 
0.00227307 1.84163 -0.55819 0.00241597 1.62752 -0.55819 0.00252446 1.46497 -0.55819 
0.00260746 1.3406 -0.55819 0.00267181 1.24418 -0.55819 0.00272281 1.16778 -0.55819 
0.00276465 1.1051 -0.55819 0.00280077 1.05098 -0.55819 0.00283415 1.00098 -0.55819 
0.0015 3 -0.569947 0.0018332 2.50073 -0.569947 0.002084 2.12492 -0.569947 
0.00227307 1.84163 -0.569947 0.00241597 1.62752 -0.569947 0.00252446 1.46497 -0.569947 
0.00260746 1.3406 -0.569947 0.00267181 1.24418 -0.569947 0.00272281 1.16778 -0.569947 
0.00276465 1.1051 -0.569947 0.00280077 1.05098 -0.569947 0.00283415 1.00098 -0.569947 
0.0015 3 -0.583924 0.0018332 2.50073 -0.583924 0.002084 2.12492 -0.583924 
[...]
POINT_DATA 29700
FIELD FieldData 5
pressure 1 29700 float
0.178573 0.178573 0.178573 0.178573 0.178573 0.178573 0.178573 0.178573 0.178573 
0.178573 0.178573 0.178573 0.178573 0.178573 0.178573 0.178573 0.178573 0.178573 
0.178573 0.178573 0.178573 0.178573 0.178573 0.178573 0.178573 0.178573 0.178573 
0.178573 0.178573 0.178573 0.178573 0.178573 0.178573 0.178573 0.178573 0.178573 
0.178573 0.178573 0.178573 0.178573 0.178573 0.178573 0.178573 0.178573 0.178573 
0.178573 0.178573 0.178573 0.178573 0.178573 0.178573 0.178573 0.178573 0.178573 
0.178573 0.178573 0.178573 0.178573 0.178573 0.178573 0.178573 0.178573 0.178573 
0.178573 0.178573 0.178573 0.178573 0.178573 0.178573 0.178573 0.178573 0.178573 
0.178573 0.178573 0.178573 0.178573 0.178573 0.178573 0.178573 0.178573 0.178573 
0.178573 0.178573 0.178573 0.178573 0.178573 0.178573 0.178573 0.178573 0.178573 
0.178573 0.178573 0.178573 0.178573 0.178573 0.178573 0.178573 0.178573 0.178573 
0.178573 0.178573 0.178573 0.178573 0.178573 0.178573 0.178573 0.178573 0.178573 
0.178573 0.178573 0.178573 0.178573 0.178573 0.178573 0.178573 0.178573 0.178573 
0.178573 0.178573 0.178573 0.178573 0.178573 0.178573 0.178573 0.178573 0.178573 
0.178573 0.178573 0.178573 0.178573 0.178573 0.178573 0.178573 0.178573 0.178573 
0.178573 0.178573 0.178573 0.178573 0.178573 0.178573 0.178573 0.178573 0.178573 
0.178573 0.178573 0.178573 0.178573 0.178573 0.178573 0.178573 0.178573 0.178573 
0.178573 0.178573 0.178573 0.178573 0.178573 0.178573 0.178573 0.178573 0.178573 
0.178573 0.178573 0.178573 0.178573 0.178573 0.178573 0.178573 0.178573 0.178573 
0.178573 0.178573 0.178573 0.178573 0.178573 0.178573 0.178573 0.178573 0.178573 
0.178573 0.178573 0.178573 0.178573 0.178573 0.178573 0.178573 0.178573 0.178573 
0.178573 0.178573 0.178573 0.178573 0.178573 0.178573 0.178573 0.178573 0.178573 
0.178573 0.178573 0.178573 0.178573 0.178573 0.178573 0.178573 0.178573 0.178573 
0.178573 0.178573 0.178573 0.178573 0.178573 0.178573 0.178573 0.178573 0.178573 
0.178573 0.178573 0.178573 0.178573 0.178573 0.178573 0.178573 0.178573 0.178573 
0.178573 0.178573 0.178573 0.178573 0.178573 0.178573 0.178573 0.178573 0.178573 
0.178573 0.178573 0.178573 0.178573 0.178573 0.178573 0.178573 0.178573 0.178573 
0.178573 0.178573 0.178573 0.178573 0.178573 0.178573 0.178573 0.178573 0.178573 
0.178573 0.178573 0.178573 0.178573 0.178573 0.178573 0.178573 0.178573 0.178573 
0.178573 0.178573 0.178573 0.178573 0.178573 0.178573 0.178573 0.178573 0.178573 
0.178573 0.178573 0.178573 0.178573 0.178573 0.178573 0.178573 0.178573 0.178573 
0.178573 0.178573 0.178573 0.178573 0.178573 0.178573 0.178573 0.178573 0.178573 
0.178573 0.178573 0.178573 0.178573 0.178573 0.178573 0.178573 0.178573 0.178573 
0.178573 0.178573 0.178573 0.178573 0.178573 0.178573 0.178573 0.178573 0.178573 
0.178573 0.178573 0.178573 0.178573 0.178573 0.178573 0.178573 0.178573 0.178573 
0.178573 0.178573 0.178573 0.178573 0.178573 0.178573 0.178573 0.178573 0.178573 
0.178573 0.178573 0.178573 0.178573 0.178573 0.178573 0.178573 0.178573 0.178573 
0.178573 0.178573 0.178573 0.178573 0.178573 0.178573 0.178573 0.178573 0.178573 
0.178573 0.178573 0.178573 0.178573 0.178573 0.178573 0.178573 0.178573 0.178573 
0.178573 0.178573 0.178573 0.178573 0.178573 0.178573 0.178573 0.178573 0.178573 
0.178573 0.178573 0.178573 0.178573 0.178573 0.178573 0.178573 0.178573 0.178573 
0.178573 0.178573 0.178573 0.178573 0.178573 0.178573 0.178573 0.178573 0.178573 
0.178573 0.178573 0.178573 0.178573 0.178573 0.178573 0.178573 0.178573 0.178573 
0.178573 0.178573 0.178573 0.178573 0.178573 0.178573 0.178573 0.178573 0.178573 
0.178573 0.178573 0.178573 0.178573 0.178573 0.178573 0.178573 0.178573 0.178573 
0.178573 0.178573 0.178573 0.178573 0.178573 0.178573 0.178573 0.178573 0.178573 
0.178573 0.178573 0.178573 0.178573 0.178573 0.178573 0.178573 0.178573 0.178573 
0.178573 0.178573 0.178573 0.178573 0.178573 0.178573 0.178573 0.178573 0.178573 
0.178573 0.178573 0.178573 0.178573 0.178573 0.178573 0.178573 0.178573 0.178573 
0.178573 0.178573 0.178573 0.178573 0.178573 0.178573 0.178573 0.178573 0.178573 
0.178573 0.178573 0.178573 0.178573 0.178573 0.178573 0.178573 0.178573 0.178573 
0.178573 0.178573 0.178573 0.178573 0.178573 0.178573 0.178573 0.178573 0.178573 
0.178573 0.178573 0.178573 0.178573 0.178573 0.178573 0.178573 0.178573 0.178573 
0.178573 0.178573 0.178573 0.178573 0.178573 0.178573 0.178573 0.178573 0.178573 
0.178573 0.178573 0.178573 0.178573 0.178573 0.178573 0.178573 0.178573 0.178573 
0.178573 0.178573 0.178573 0.178573 0.178573 0.178573 0.178573 0.178573 0.178573 
0.178573 0.178573 0.178573 0.178573 0.178573 0.178573 0.178573 0.178573 0.178573 
0.178573 0.178573 0.178573 0.178573 0.178573 0.178573 0.178573 0.178573 0.178573 
0.178573 0.178573 0.178573 0.178573 0.178573 0.178573 0.178573 0.178573 0.178573 
0.178573 0.178573 0.178573 0.178573 0.178573 0.178573 0.178573 0.178573 0.178573 
0.178573 0.178573 0.178573 0.178573 0.178573 0.178573 0.178573 0.178573 0.178573 
0.178573 0.178573 0.178573 0.178573 0.178573 0.178573 0.178573 0.178573 0.178573 
0.178573 0.178573 0.178573 0.178573 0.178573 0.178573 0.178573 0.178573 0.178573 
0.178573 0.178573 0.178573 0.178573 0.178573 0.178573 0.178573 0.178573 0.178573 
0.178573 0.178573 0.178573 0.178573 0.178573 0.178573 0.178573 0.178573 0.178573 
0.178573 0.178573 0.178573 0.178573 0.178573 0.178573 0.178573 0.178573 0.178573 
0.178573 0.178573 0.178573 0.178573 0.178573 0.178573 0.178573 0.178573 0.178573 
0.178573 0.178573 0.178573 0.178573 0.178573 0.178573 0.178573 0.178573 0.178573 
0.178573 0.178573 0.178573 0.178573 0.178573 0.178573 0.178573 0.178573 0.178573 
0.178573 0.178573 0.178573 0.178573 0.178573 0.178573 0.178573 0.178573 0.178573 
0.178573 0.178573 0.178573 0.178573 0.178573 0.178573 0.178573 0.178573 0.178573 
0.178573 0.178573 0.178573 0.178573 0.178573 0.178573 0.178573 0.178573 0.178573 
0.178573 0.178573 0.178573 0.178573 0.178573 0.178573 0.178573 0.178573 0.178573 
0.178573 0.178573 0.178573 0.178573 0.178573 0.178573 0.178573 0.178573 0.178573 
0.178573 0.178573 0.178573 0.178573 0.178573 0.178573 0.178573 0.178573 0.178573 
0.178573 0.178573 0.178573 0.178573 0.178573 0.178573 0.178573 0.178573 0.178573 
0.178573 0.178573 0.178573 0.178573 0.178573 0.178573 0.178573 0.178573 0.178573 
0.178573 0.178573 0.178573 0.178573 0.178573 0.178573 0.178573 0.178573 0.178573 
0.178573 0.178573 0.178573 0.178573 0.178573 0.178573 0.178573 0.178573 0.178573 
0.178573 0.178573 0.178573 0.178573 0.178573 0.178573 0.178573 0.178573 0.178573 
0.178573 0.178573 0.178573 0.178573 0.178573 0.178573 0.178573 0.178573 0.178573 
0.178573 0.178573 0.178573 0.178573 0.178573 0.178573 0.178573 0.178573 0.178573 
0.178573 0.178573 0.178573 0.178573 0.178573 0.178573 0.178573 0.178573 0.178573 
0.178573 0.178573 0.178573 0.178573 0.178573 0.178573 0.178573 0.178573 0.178573 
0.178573 0.178573 0.178573 0.178573 0.178573 0.178573 0.178573 0.178573 0.178573 
0.178573 0.178573 0.178573 0.178573 0.178573 0.178573 0.178573 0.178573 0.178573 
0.178573 0.178573 0.178573 0.178573 0.178573 0.178573 0.178573 0.178573 0.178573 
0.178573 0.178573 0.178573 0.178573 0.178573 0.178573 0.178573 0.178573 0.178573 
0.178573 0.178573 0.178573 0.178573 0.178573 0.178573 0.178573 0.178573 0.178573 
0.178573 0.178573 0.178573 0.178573 0.178573 0.178573 0.178573 0.178573 0.178573 
0.178573 0.178573 0.178573 0.178573 0.178573 0.178573 0.178573 0.178573 0.178573 
0.178573 0.178573 0.178573 0.178573 0.178573 0.178573 0.178573 0.178573 0.178573 
0.178573 0.178573 0.178573 0.178573 0.178573 0.178573 0.178573 0.178573 0.178573 
0.178573 0.178573 0.178573 0.178573 0.178573 0.178573 0.178573 0.178573 0.178573 
0.178573 0.178573 0.178573 0.178573 0.178573 0.178573 0.178573 0.178573 0.178573 
0.178573 0.178573 0.178573 0.178573 0.178573 0.178573 0.178573 0.178573 0.178573 
0.178573 0.178573 0.178573 0.178573 0.178573 0.178573 0.178573 0.178573 0.178573 
0.178573 0.178573 0.178573 0.178573 0.178573 0.178573 0.178573 0.178573 0.178573 
0.178573 0.178573 0.178573 0.178573 0.178573 0.178573 0.178573 0.178573 0.178573 
0.178573 0.178573 0.178573 0.178573 0.178573 0.178573 0.178573 0.178573 0.178573 
0.178573 0.178573 0.178573 0.178573 0.178573 0.178573 0.178573 0.178573 0.178573 
0.178573 0.178573 0.178573 0.178573 0.178573 0.178573 0.178573 0.178573 0.178573 
0.178573 0.178573 0.178573 0.178573 0.178573 0.178573 0.178573 0.178573 0.178573 
0.178573 0.178573 0.178573 0.178573 0.178573 0.178573 0.178573 0.178573 0.178573 
0.178573 0.178573 0.178573 0.178573 0.178573 0.178573 0.178573 0.178573 0.178573 
0.178573 0.178573 0.178573 0.178573 0.178573 0.178573 0.178573 0.178573 0.178573 
0.178573 0.178573 0.178573 0.178573 0.178573 0.178573 0.178573 0.178573 0.178573 
0.178573 0.178573 0.178573 0.178573 0.178573 0.178573 0.178573 0.178573 0.178573 
0.178573 0.178573 0.178573 0.178573 0.178573 0.178573 0.178573 0.178573 0.178573 
0.178573 0.178573 0.178573 0.178573 0.178573 0.178573 0.178573 0.178573 0.178573 
0.178573 0.178573 0.178573 0.178573 0.178573 0.178573 0.178573 0.178573 0.178573 
0.178573 0.178573 0.178573 0.178573 0.178573 0.178573 0.178573 0.178573 0.178573 
0.178573 0.178573 0.178573 0.178573 0.178573 0.178573 0.178573 0.178573 0.178573 
0.178573 0.178573 0.178573 0.178573 0.178573 0.178573 0.178573 0.178573 0.178573 
0.178573 0.178573 0.178573 0.178573 0.178573 0.178573 0.178573 0.178573 0.178573 
0.178573 0.178573 0.178573 0.178573 0.178573 0.178573 0.178573 0.178573 0.178573 
0.178573 0.178573 0.178573 0.178573 0.178573 0.178573 0.178573 0.178573 0.178573 
0.178573 0.178573 0.178573 0.178573 0.178573 0.178573 0.178573 0.178573 0.178573 
0.178573 0.178573 0.178573 0.178573 0.178573 0.178573 0.178573 0.178573 0.178573 
0.178573 0.178573 0.178573 0.178573 0.178573 0.178573 0.178573 0.178573 0.178573 
0.178573 0.178573 0.178573 0.178573 0.178573 0.178573 0.178573 0.178573 0.178573 
0.178573 0.178573 0.178573 0.178573 0.178573 0.178573 0.178573 0.178573 0.178573 
0.178573 0.178573 0.178573 0.178573 0.178573 0.178573 0.178573 0.178573 0.178573 
0.178573 0.178573 0.178573 0.178573 0.178573 0.178573 0.178573 0.178573 0.178573 
0.178573 0.178573 0.178573 0.178573 0.178573 0.178573 0.178573 0.178573 0.178573 
0.178573 0.178573 0.178573 0.178573 0.178573 0.178573 0.178573 0.178573 0.178573 
0.178573 0.178573 0.178573 0.178573 0.178573 0.178573 0.178573 0.178573 0.178573 
0.178573 0.178573 0.178573 0.178573 0.178573 0.178573 0.178573 0.178573 0.178573 
0.178573 0.178573 0.178573 0.178573 0.178573 0.178573 0.178573 0.178573 0.178573 
0.178573 0.178573 0.178573 0.178573 0.178573 0.178573 0.178573 0.178573 0.178573 
0.178573 0.178573 0.178573 0.178573 0.178573 0.178573 0.178573 0.178573 0.178573 
0.178573 0.178573 0.178573 0.178573 0.178573 0.178573 0.178573 0.178573 0.178573 
0.178573 0.178573 0.178573 0.178573 0.178573 0.178573 0.178573 0.178573 0.178573 
0.178573 0.178573 0.178573 0.178573 0.178573 0.178573 0.178573 0.178573 0.178573 
0.178573 0.178573 0.178573 0.178573 0.178573 0.178573 0.178573 0.178573 0.178573 
0.178573 0.178573 0.178573 0.178573 0.178573 0.178573 0.178573 0.178573 0.178573 
0.178573 0.178573 0.178573 0.178573 0.178573 0.178573 0.178573 0.178573 0.178573 
0.178573 0.178573 0.178573 0.178573 0.178573 0.178573 0.178573 0.178573 0.178573 
0.178573 0.178573 0.178573 0.178573 0.178573 0.178573 0.178573 0.178573 0.178573 
0.178573 0.178573 0.178573 0.178573 0.178573 0.178573 0.178573 0.178573 0.178573 
0.178573 0.178573 0.178573 0.178573 0.178573 0.178573 0.178573 0.178573 0.178573 
0.178573 0.178573 0.178573 0.178573 0.178573 0.178573 0.178573 0.178573 0.178573 
0.178573 0.178573 0.178573 0.178573 0.178573 0.178573 0.178573 0.178573 0.178573 
0.178573 0.178573 0.178573 0.178573 0.178573 0.178573 0.178573 0.178573 0.178573 
0.178573 0.178573 0.178573 0.178573 0.178573 0.178573 0.178573 0.178573 0.178573 
0.178573 0.178573 0.178573 0.178573 0.178573 0.178573 0.178573 0.178573 0.178573 
0.178573 0.178573 0.178573 0.178573 0.178573 0.178573 0.178573 0.178573 0.178573 
0.178573 0.178573 0.178573 0.178573 0.178573 0.178573 0.178573 0.178573 0.178573 
0.178573 0.178573 0.178573 0.178573 0.178573 0.178573 0.178573 0.178573 0.178573 
0.178573 0.178573 0.178573 0.178573 0.178573 0.178573 0.178573 0.178573 0.178573 
0.178573 0.178573 0.178573 0.178573 0.178573 0.178573 0.178573 0.178573 0.178573 
0.178573 0.178573 0.178573 0.178573 0.178573 0.178573 0.178573 0.178573 0.178573 
0.178573 0.178573 0.178573 0.178573 0.178573 0.178573 0.178573 0.178573 0.178573 
0.178573 0.178573 0.178573 0.178573 0.178573 0.178573 0.178573 0.178573 0.178573 
0.178573 0.178573 0.178573 0.178573 0.178573 0.178573 0.178573 0.178573 0.178573 
0.178573 0.178573 0.178573 0.178573 0.178573 0.178573 0.178573 0.178573 0.178573 
0.178573 0.178573 0.178573 0.178573 0.178573 0.178573 0.178573 0.178573 0.178573 
0.178573 0.178573 0.178573 0.178573 0.178573 0.178573 0.178573 0.178573 0.178573 
0.178573 0.178573 0.178573 0.178573 0.178573 0.178573 0.178573 0.178573 0.178573 
0.178573 0.178573 0.178573 0.178573 0.178573 0.178573 0.178573 0.178573 0.178573 
0.178573 0.178573 0.178573 0.178573 0.178573 0.178573 0.178573 0.178573 0.178573 
0.178573 0.178573 0.178573 0.178573 0.178573 0.178573 0.178573 0.178573 0.178573 
0.178573 0.178573 0.178573 0.178573 0.178573 0.178573 0.178573 0.178573 0.178573 
0.178573 0.178573 0.178573 0.178573 0.178573 0.178573 0.178573 0.178573 0.178573 
0.178573 0.178573 0.178573 0.178573 0.178573 0.178573 0.178573 0.178573 0.178573 
0.178573 0.178573 0.178573 0.178573 0.178573 0.178573 0.178573 0.178573 0.178573 
0.178573 0.178573 0.178573 0.178573 0.178573 0.178573 0.178573 0.178573 0.178573 
0.178573 0.178573 0.178573 0.178573 0.178573 0.178573 0.178573 0.178573 0.178573 
0.178573 0.178573 0.178573 0.178573 0.178573 0.178573 0.178573 0.178573 0.178573 
0.178573 0.178573 0.178573 0.178573 0.178573 0.178573 0.178573 0.178573 0.178573 
0.178573 0.178573 0.178573 0.178573 0.178573 0.178573 0.178573 0.178573 0.178573 
0.178573 0.178573 0.178573 0.178573 0.178573 0.178573 0.178573 0.178573 0.178573 
0.178573 0.178573 0.178573 0.178573 0.178573 0.178573 0.178573 0.178573 0.178573 
0.178573 0.178573 0.178573 0.178573 0.178573 0.178573 0.178573 0.178573 0.178573 
0.178573 0.178573 0.178573 0.178573 0.178573 0.178573 0.178573 0.178573 0.178573 
0.178573 0.178573 0.178573 0.178573 0.178573 0.178573 0.178573 0.178573 0.178573 
0.178573 0.178573 0.178573 0.178573 0.178573 0.178573 0.178573 0.178573 0.178573 
0.178573 0.178573 0.178573 0.178573 0.178573 0.178573 0.178573 0.178573 0.178573 
0.178573 0.178573 0.178573 0.178573 0.178573 0.178573 0.178573 0.178573 0.178573 
0.178573 0.178573 0.178573 0.178573 0.178573 0.178573 0.178573 0.178573 0.178573 
0.178573 0.178573 0.178573 0.178573 0.178573 0.178573 0.178573 0.178573 0.178573 
0.178573 0.178573 0.178573 0.178573 0.178573 0.178573 0.178573 0.178573 0.178573 
0.178573 0.178573 0.178573 0.178573 0.178573 0.178573 0.178573 0.178573 0.178573 
0.178573 0.178573 0.178573 0.178573 0.178573 0.178573 0.178573 0.178573 0.178573 
0.178573 0.178573 0.178573 0.178573 0.178573 0.178573 0.178573 0.178573 0.178573 
0.178573 0.178573 0.178573 0.178573 0.178573 0.178573 0.178573 0.178573 0.178573 
0.178573 0.178573 0.178573 0.178573 0.178573 0.178573 0.178573 0.178573 0.178573 
0.178573 0.178573 0.178573 0.178573 0.178573 0.178573 0.178573 0.178573 0.178573 
0.178573 0.178573 0.178573 0.178573 0.178573 0.178573 0.178573 0.178573 0.178573 
0.178573 0.178573 0.178573 0.178573 0.178573 0.178573 0.178573 0.178573 0.178573 
0.178573 0.178573 0.178573 0.178573 0.178573 0.178573 0.178573 0.178573 0.178573 
0.178573 0.178573 0.178573 0.178573 0.178573 0.178573 0.178573 0.178573 0.178573 
0.178573 0.178573 0.178573 0.178573 0.178573 0.178573 0.178573 0.178573 0.178573 
0.178573 0.178573 0.178573 0.178573 0.178573 0.178573 0.178573 0.178573 0.178573 
0.178573 0.178573 0.178573 0.178573 0.178573 0.178573 0.178573 0.178573 0.178573 
0.178573 0.178573 0.178573 0.178573 0.178573 0.178573 0.178573 0.178573 0.178573 
0.178573 0.178573 0.178573 0.178573 0.178573 0.178573 0.178573 0.178573 0.178573 
0.178573 0.178573 0.178573 0.178573 0.178573 0.178573 0.178573 0.178573 0.178573 
0.178573 0.178573 0.178573 0.178573 0.178573 0.178573 0.178573 0.178573 0.178573 
0.178573 0.178573 0.178573 0.178573 0.178573 0.178573 0.178573 0.178573 0.178573 
0.178573 0.178573 0.178573 0.178573 0.178573 0.178573 0.178573 0.178573 0.178573 
0.178573 0.178573 0.178573 0.178573 0.178573 0.178573 0.178573 0.178573 0.178573 
0.178573 0.178573 0.178573 0.178573 0.178573 0.178573 0.178573 0.178573 0.178573 
0.178573 0.178573 0.178573 0.178573 0.178573 0.178573 0.178573 0.178573 0.178573 
0.178573 0.178573 0.178573 0.178573 0.178573 0.178573 0.178573 0.178573 0.178573 
0.178573 0.178573 0.178573 0.178573 0.178573 0.178573 0.178573 0.178573 0.178573 
0.178573 0.178573 0.178573 0.178573 0.178573 0.178573 0.178573 0.178573 0.178573 
0.178573 0.178573 0.178573 0.178573 0.178573 0.178573 0.178573 0.178573 0.178573 
0.178573 0.178573 0.178573 0.178573 0.178573 0.178573 0.178573 0.178573 0.178573 
0.178573 0.178573 0.178573 0.178573 0.178573 0.178573 0.178573 0.178573 0.178573 
0.178573 0.178573 0.178573 0.178573 0.178573 0.178573 0.178573 0.178573 0.178573 
0.178573 0.178573 0.178573 0.178573 0.178573 0.178573 0.178573 0.178573 0.178573 
0.178573 0.178573 0.178573 0.178573 0.178573 0.178573 0.178573 0.178573 0.178573 
0.178573 0.178573 0.178573 0.178573 0.178573 0.178573 0.178573 0.178573 0.178573 
0.178573 0.178573 0.178573 0.178573 0.178573 0.178573 0.178573 0.178573 0.178573 
0.178573 0.178573 0.178573 0.178573 0.178573 0.178573 0.178573 0.178573 0.178573 
0.178573 0.178573 0.178573 0.178573 0.178573 0.178573 0.178573 0.178573 0.178573 
0.178573 0.178573 0.178573 0.178573 0.178573 0.178573 0.178573 0.178573 0.178573 
0.178573 0.178573 0.178573 0.178573 0.178573 0.178573 0.178573 0.178573 0.178573 
0.178573 0.178573 0.178573 0.178573 0.178573 0.178573 0.178573 0.178573 0.178573 
0.178573 0.178573 0.178573 0.178573 0.178573 0.178573 0.178573 0.178573 0.178573 
0.178573 0.178573 0.178573 0.178573 0.178573 0.178573 0.178573 0.178573 0.178573 
0.178573 0.178573 0.178573 0.178573 0.178573 0.178573 0.178573 0.178573 0.178573 
0.178573 0.178573 0.178573 0.178573 0.178573 0.178573 0.178573 0.178573 0.178573 
0.178573 0.178573 0.178573 0.178573 0.178573 0.178573 0.178573 0.178573 0.178573 
0.178573 0.178573 0.178573 0.178573 0.178573 0.178573 0.178573 0.178573 0.178573 
0.178573 0.178573 0.178573 0.178573 0.178573 0.178573 0.178573 0.178573 0.178573 
0.178573 0.178573 0.178573 0.178573 0.178573 0.178573 0.178573 0.178573 0.178573 
0.178573 0.178573 0.178573 0.178573 0.178573 0.178573 0.178573 0.178573 0.178573 
0.178573 0.178573 0.178573 0.178573 0.178573 0.178573 0.178573 0.178573 0.178573 
0.178573 0.178573 0.178573 0.178573 0.178573 0.178573 0.178573 0.178573 0.178573 
0.178573 0.178573 0.178573 0.178573 0.178573 0.178573 0.178573 0.178573 0.178573 
0.178573 0.178573 0.178573 0.178573 0.178573 0.178573 0.178573 0.178573 0.178573 
0.178573 0.178573 0.178573 0.178573 0.178573 0.178573 0.178573 0.178573 0.178573 
0.178573 0.178573 0.178573 0.178573 0.178573 0.178573 0.178573 0.178573 0.178573 
0.178573 0.178573 0.178573 0.178573 0.178573 0.178573 0.178573 0.178573 0.178573 
0.178573 0.178573 0.178573 0.178573 0.178573 0.178573 0.178573 0.178573 0.178573 
0.178573 0.178573 0.178573 0.178573 0.178573 0.178573 0.178573 0.178573 0.178573 
0.178573 0.178573 0.178573 0.178573 0.178573 0.178573 0.178573 0.178573 0.178573 
0.178573 0.178573 0.178573 0.178573 0.178573 0.178573 0.178573 0.178573 0.178573 
0.178573 0.178573 0.178573 0.178573 0.178573 0.178573 0.178573 0.178573 0.178573 
0.178573 0.178573 0.178573 0.178573 0.178573 0.178573 0.178573 0.178573 0.178573 
0.178573 0.178573 0.178573 0.178573 0.178573 0.178573 0.178573 0.178573 0.178573 