# vtk DataFile Version 5.1
vtk output
ASCII
DATASET STRUCTURED_GRID
DIMENSIONS 12 25 99
POINTS 29700 float
1.44059 3 0.5 1.44059 2.66947 0.5 1.44059 2.4101 0.5 
1.44059 2.20612 0.5 1.44059 2.04511 0.5 1.44059 1.91728 0.5 
1.44059 1.81483 0.5 1.44059 1.73155 0.5 1.44059 1.66236 0.5 
1.44059 1.60304 0.5 1.44059 1.55 0.5 1.44059 1.5 0.5 
1.44059 3 0.503 1.44059 2.66947 0.503 1.44059 2.4101 0.503 
1.44059 2.20612 0.503 1.44059 2.04511 0.503 1.44059 1.91728 0.503 
1.44059 1.81483 0.503 1.44059 1.73155 0.503 1.44059 1.66236 0.503 
1.44059 1.60304 0.503 1.44059 1.55 0.503 1.44059 1.5 0.503 
1.44059 3 0.506095 1.44059 2.66947 0.506095 1.44059 2.4101 0.506095 
1.44059 2.20612 0.506095 1.44059 2.04511 0.506095 1.44059 1.91728 0.506095 
1.44059 1.81483 0.506095 1.44059 1.73155 0.506095 1.44059 1.66236 0.506095 
1.44059 1.60304 0.506095 1.44059 1.55 0.506095 1.44059 1.5 0.506095 
1.44059 3 0.509384 1.44059 2.66947 0.509384 1.44059 2.4101 0.509384 
1.44059 2.20612 0.509384 1.44059 2.04511 0.509384 1.44059 1.91728 0.509384 
1.44059 1.81483 0.509384 1.44059 1.73155 0.509384 1.44059 1.66236 0.509384 
1.44059 1.60304 0.509384 1.44059 1.55 0.509384 1.44059 1.5 0.509384 
1.44059 3 0.512971 1.44059 2.66947 0.512971 1.44059 2.4101 0.512971 
1.44059 2.20612 0.512971 1.44059 2.04511 0.512971 1.44059 1.91728 0.512971 
1.44059 1.81483 0.512971 1.44059 1.73155 0.512971 1.44059 1.66236 0.512971 
1.44059 1.60304 0.512971 1.44059 1.55 0.512971 1.44059 1.5 0.512971 
1.44059 3 0.516969 1.44059 2.66947 0.516969 1.44059 2.4101 0.516969 
1.44059 2.20612 0.516969 1.44059 2.04511 0.516969 1.44059 1.91728 0.516969 
1.44059 1.81483 0.516969 1.44059 1.73155 0.516969 1.44059 1.66236 0.516969 
1.44059 1.60304 0.516969 1.44059 1.55 0.516969 1.44059 1.5 0.516969 
1.44059 3 0.521506 1.44059 2.66947 0.521506 1.44059 2.4101 0.521506 
1.44059 2.20612 0.521506 1.44059 2.04511 0.521506 1.44059 1.91728 0.521506 
1.44059 1.81483 0.521506 1.44059 1.73155 0.521506 1.44059 1.66236 0.521506 
1.44059 1.60304 0.521506 1.44059 1.55 0.521506 1.44059 1.5 0.521506 
1.44059 3 0.526726 1.44059 2.66947 0.526726 1.44059 2.4101 0.526726 
1.44059 2.20612 0.526726 1.44059 2.04511 0.526726 1.44059 1.91728 0.526726 
1.44059 1.81483 0.526726 1.44059 1.73155 0.526726 1.44059 1.66236 0.526726 
1.44059 1.60304 0.526726 1.44059 1.55 0.526726 1.44059 1.5 0.526726 
1.44059 3 0.532795 1.44059 2.66947 0.532795 1.44059 2.4101 0.532795 
1.44059 2.20612 0.532795 1.44059 2.04511 0.532795 1.44059 1.91728 0.532795 
1.44059 1.81483 0.532795 1.44059 1.73155 0.532795 1.44059 1.66236 0.532795 
1.44059 1.60304 0.532795 1.44059 1.55 0.532795 1.44059 1.5 0.532795 
1.44059 3 0.539904 1.44059 2.66947 0.539904 1.44059 2.4101 0.539904 
1.44059 2.20612 0.539904 1.44059 2.04511 0.539904 1.44059 1.91728 0.539904 
1.44059 1.81483 0.539904 1.44059 1.73155 0.539904 1.44059 1.66236 0.539904 
1.44059 1.60304 0.539904 1.44059 1.55 0.539904 1.44059 1.5 0.539904 
1.44059 3 0.548281 1.44059 2.66947 0.548281 1.44059 2.4101 0.548281 
1.44059 2.20612 0.548281 1.44059 2.04511 0.548281 1.44059 1.91728 0.548281 
1.44059 1.81483 0.548281 1.44059 1.73155 0.548281 1.44059 1.66236 0.548281 
1.44059 1.60304 0.548281 1.44059 1.55 0.548281 1.44059 1.5 0.548281 
1.44059 3 0.55819 1.44059 2.66947 0.55819 1.44059 2.4101 0.55819 
1.44059 2.20612 0.55819 1.44059 2.04511 0.55819 1.44059 1.91728 0.55819 
1.44059 1.81483 0.55819 1.44059 1.73155 0.55819 1.44059 1.66236 0.55819 
1.44059 1.60304 0.55819 1.44059 1.55 0.55819 1.44059 1.5 0.55819 
1.44059 3 0.569947 1.44059 2.66947 0.569947 1.44059 2.4101 0.569947 
1.44059 2.20612 0.569947 1.44059 2.04511 0.569947 1.44059 1.91728 0.569947 
1.44059 1.81483 0.569947 1.44059 1.73155 0.569947 1.44059 1.66236 0.569947 
1.44059 1.60304 0.569947 1.44059 1.55 0.569947 1.44059 1.5 0.569947 
1.44059 3 0.583924 1.44059 2.66947 0.583924 1.44059 2.4101 0.583924 
1.44059 2.20612 0.583924 1.44059 2.04511 0.583924 1.44059 1.91728 0.583924 
1.44059 1.81483 0.583924 1.44059 1.73155 0.583924 1.44059 1.66236 0.583924 
1.44059 1.60304 0.583924 1.44059 1.55 0.583924 1.44059 1.5 0.583924 
1.44059 3 0.600565 1.44059 2.66947 0.600565 1.44059 2.4101 0.600565 
1.44059 2.20612 0.600565 1.44059 2.04511 0.600565 1.44059 1.91728 0.600565 
1.44059 1.81483 0.600565 1.44059 1.73155 0.600565 1.44059 1.66236 0.600565 
1.44059 1.60304 0.600565 1.44059 1.55 0.600565 1.44059 1.5 0.600565 
1.44059 3 0.6204 1.44059 2.66947 0.6204 1.44059 2.4101 0.6204 
1.44059 2.20612 0.6204 1.44059 2.04511 0.6204 1.44059 1.91728 0.6204 
1.44059 1.81483 0.6204 1.44059 1.73155 0.6204 1.44059 1.66236 0.6204 
1.44059 1.60304 0.6204 1.44059 1.55 0.6204 1.44059 1.5 0.6204 
1.44059 3 0.644057 1.44059 2.66947 0.644057 1.44059 2.4101 0.644057 
1.44059 2.20612 0.644057 1.44059 2.04511 0.644057 1.44059 1.91728 0.644057 
1.44059 1.81483 0.644057 1.44059 1.73155 0.644057 1.44059 1.66236 0.644057 
1.44059 1.60304 0.644057 1.44059 1.55 0.644057 1.44059 1.5 0.644057 
1.44059 3 0.672287 1.44059 2.66947 0.672287 1.44059 2.4101 0.672287 
1.44059 2.20612 0.672287 1.44059 2.04511 0.672287 1.44059 1.91728 0.672287 
1.44059 1.81483 0.672287 1.44059 1.73155 0.672287 1.44059 1.66236 0.672287 
1.44059 1.60304 0.672287 1.44059 1.55 0.672287 1.44059 1.5 0.672287 
1.44059 3 0.705987 1.44059 2.66947 0.705987 1.44059 2.4101 0.705987 
1.44059 2.20612 0.705987 1.44059 2.04511 0.705987 1.44059 1.91728 0.705987 
1.44059 1.81483 0.705987 1.44059 1.73155 0.705987 1.44059 1.66236 0.705987 
1.44059 1.60304 0.705987 1.44059 1.55 0.705987 1.44059 1.5 0.705987 
1.44059 3 0.746226 1.44059 2.66947 0.746226 1.44059 2.4101 0.746226 
1.44059 2.20612 0.746226 1.44059 2.04511 0.746226 1.44059 1.91728 0.746226 
1.44059 1.81483 0.746226 1.44059 1.73155 0.746226 1.44059 1.66236 0.746226 
1.44059 1.60304 0.746226 1.44059 1.55 0.746226 1.44059 1.5 0.746226 
1.44059 3 0.794282 1.44059 2.66947 0.794282 1.44059 2.4101 0.794282 
1.44059 2.20612 0.794282 1.44059 2.04511 0.794282 1.44059 1.91728 0.794282 
1.44059 1.81483 0.794282 1.44059 1.73155 0.794282 1.44059 1.66236 0.794282 
1.44059 1.60304 0.794282 1.44059 1.55 0.794282 1.44059 1.5 0.794282 
1.44059 3 0.851682 1.44059 2.66947 0.851682 1.44059 2.4101 0.851682 
1.44059 2.20612 0.851682 1.44059 2.04511 0.851682 1.44059 1.91728 0.851682 
1.44059 1.81483 0.851682 1.44059 1.73155 0.851682 1.44059 1.66236 0.851682 
1.44059 1.60304 0.851682 1.44059 1.55 0.851682 1.44059 1.5 0.851682 
1.44059 3 0.920246 1.44059 2.66947 0.920246 1.44059 2.4101 0.920246 
1.44059 2.20612 0.920246 1.44059 2.04511 0.920246 1.44059 1.91728 0.920246 
1.44059 1.81483 0.920246 1.44059 1.73155 0.920246 1.44059 1.66236 0.920246 
1.44059 1.60304 0.920246 1.44059 1.55 0.920246 1.44059 1.5 0.920246 
1.44059 3 1.00215 1.44059 2.66947 1.00215 1.44059 2.4101 1.00215 
1.44059 2.20612 1.00215 1.44059 2.04511 1.00215 1.44059 1.91728 1.00215 
1.44059 1.81483 1.00215 1.44059 1.73155 1.00215 1.44059 1.66236 1.00215 
1.44059 1.60304 1.00215 1.44059 1.55 1.00215 1.44059 1.5 1.00215 
1.44059 3 1.1 1.44059 2.66947 1.1 1.44059 2.4101 1.1 
1.44059 2.20612 1.1 1.44059 2.04511 1.1 1.44059 1.91728 1.1 
1.44059 1.81483 1.1 1.44059 1.73155 1.1 1.44059 1.66236 1.1 
1.44059 1.60304 1.1 1.44059 1.55 1.1 1.44059 1.5 1.1 
1.43559 3 0.5 1.43607 2.66907 0.5 1.43644 2.40946 0.5 
1.43674 2.20533 0.5 1.43697 2.04424 0.5 1.43715 1.91635 0.5 
1.4373 1.81387 0.5 1.43742 1.73057 0.5 1.43752 1.66137 0.5 
1.43761 1.60206 0.5 1.43768 1.54902 0.5 1.43776 1.49902 0.5 
1.43559 3 0.503 1.43607 2.66907 0.503 1.43644 2.40946 0.503 
1.43674 2.20533 0.503 1.43697 2.04424 0.503 1.43715 1.91635 0.503 
1.4373 1.81387 0.503 1.43742 1.73057 0.503 1.43752 1.66137 0.503 
1.43761 1.60206 0.503 1.43768 1.54902 0.503 1.43776 1.49902 0.503 
1.43559 3 0.506095 1.43607 2.66907 0.506095 1.43644 2.40946 0.506095 
1.43674 2.20533 0.506095 1.43697 2.04424 0.506095 1.43715 1.91635 0.506095 
1.4373 1.81387 0.506095 1.43742 1.73057 0.506095 1.43752 1.66137 0.506095 
1.43761 1.60206 0.506095 1.43768 1.54902 0.506095 1.43776 1.49902 0.506095 
1.43559 3 0.509384 1.43607 2.66907 0.509384 1.43644 2.40946 0.509384 
1.43674 2.20533 0.509384 1.43697 2.04424 0.509384 1.43715 1.91635 0.509384 
1.4373 1.81387 0.509384 1.43742 1.73057 0.509384 1.43752 1.66137 0.509384 
1.43761 1.60206 0.509384 1.43768 1.54902 0.509384 1.43776 1.49902 0.509384 
1.43559 3 0.512971 1.43607 2.66907 0.512971 1.43644 2.40946 0.512971 
1.43674 2.20533 0.512971 1.43697 2.04424 0.512971 1.43715 1.91635 0.512971 
1.4373 1.81387 0.512971 1.43742 1.73057 0.512971 1.43752 1.66137 0.512971 
1.43761 1.60206 0.512971 1.43768 1.54902 0.512971 1.43776 1.49902 0.512971 
1.43559 3 0.516969 1.43607 2.66907 0.516969 1.43644 2.40946 0.516969 
1.43674 2.20533 0.516969 1.43697 2.04424 0.516969 1.43715 1.91635 0.516969 
1.4373 1.81387 0.516969 1.43742 1.73057 0.516969 1.43752 1.66137 0.516969 
1.43761 1.60206 0.516969 1.43768 1.54902 0.516969 1.43776 1.49902 0.516969 
1.43559 3 0.521506 1.43607 2.66907 0.521506 1.43644 2.40946 0.521506 
1.43674 2.20533 0.521506 1.43697 2.04424 0.521506 1.43715 1.91635 0.521506 
1.4373 1.81387 0.521506 1.43742 1.73057 0.521506 1.43752 1.66137 0.521506 
1.43761 1.60206 0.521506 1.43768 1.54902 0.521506 1.43776 1.49902 0.521506 
1.43559 3 0.526726 1.43607 2.66907 0.526726 1.43644 2.40946 0.526726 
1.43674 2.20533 0.526726 1.43697 2.04424 0.526726 1.43715 1.91635 0.526726 
1.4373 1.81387 0.526726 1.43742 1.73057 0.526726 1.43752 1.66137 0.526726 
1.43761 1.60206 0.526726 1.43768 1.54902 0.526726 1.43776 1.49902 0.526726 
1.43559 3 0.532795 1.43607 2.66907 0.532795 1.43644 2.40946 0.532795 
1.43674 2.20533 0.532795 1.43697 2.04424 0.532795 1.43715 1.91635 0.532795 
1.4373 1.81387 0.532795 1.43742 1.73057 0.532795 1.43752 1.66137 0.532795 
1.43761 1.60206 0.532795 1.43768 1.54902 0.532795 1.43776 1.49902 0.532795 
1.43559 3 0.539904 1.43607 2.66907 0.539904 1.43644 2.40946 0.539904 
1.43674 2.20533 0.539904 1.43697 2.04424 0.539904 1.43715 1.91635 0.539904 
1.4373 1.81387 0.539904 1.43742 1.73057 0.539904 1.43752 1.66137 0.539904 
[...]
POINT_DATA 29700
FIELD FieldData 5
pressure 1 29700 float
0.178573 0.178573 0.178573 0.178573 0.178573 0.178573 0.178573 0.178573 0.178573 
0.178573 0.178573 0.178573 0.178573 0.178573 0.178573 0.178573 0.178573 0.178573 
0.178573 0.178573 0.178573 0.178573 0.178573 0.178573 0.178573 0.178573 0.178573 
0.178573 0.178573 0.178573 0.178573 0.178573 0.178573 0.178573 0.178573 0.178573 
0.178573 0.178573 0.178573 0.178573 0.178573 0.178573 0.178573 0.178573 0.178573 
0.178573 0.178573 0.178573 0.178573 0.178573 0.178573 0.178573 0.178573 0.178573 
0.178573 0.178573 0.178573 0.178573 0.178573 0.178573 0.178573 0.178573 0.178573 
0.178573 0.178573 0.178573 0.178573 0.178573 0.178573 0.178573 0.178573 0.178573 
0.178573 0.178573 0.178573 0.178573 0.178573 0.178573 0.178573 0.178573 0.178573 
0.178573 0.178573 0.178573 0.178573 0.178573 0.178573 0.178573 0.178573 0.178573 
0.178573 0.178573 0.178573 0.178573 0.178573 0.178573 0.178573 0.178573 0.178573 
0.178573 0.178573 0.178573 0.178573 0.178573 0.178573 0.178573 0.178573 0.178573 
0.178573 0.178573 0.178573 0.178573 0.178573 0.178573 0.178573 0.178573 0.178573 
0.178573 0.178573 0.178573 0.178573 0.178573 0.178573 0.178573 0.178573 0.178573 
0.178573 0.178573 0.178573 0.178573 0.178573 0.178573 0.178573 0.178573 0.178573 
0.178573 0.178573 0.178573 0.178573 0.178573 0.178573 0.178573 0.178573 0.178573 
0.178573 0.178573 0.178573 0.178573 0.178573 0.178573 0.178573 0.178573 0.178573 
0.178573 0.178573 0.178573 0.178573 0.178573 0.178573 0.178573 0.178573 0.178573 
0.178573 0.178573 0.178573 0.178573 0.178573 0.178573 0.178573 0.178573 0.178573 
0.178573 0.178573 0.178573 0.178573 0.178573 0.178573 0.178573 0.178573 0.178573 
0.178573 0.178573 0.178573 0.178573 0.178573 0.178573 0.178573 0.178573 0.178573 
0.178573 0.178573 0.178573 0.178573 0.178573 0.178573 0.178573 0.178573 0.178573 
0.178573 0.178573 0.178573 0.178573 0.178573 0.178573 0.178573 0.178573 0.178573 
0.178573 0.178573 0.178573 0.178573 0.178573 0.178573 0.178573 0.178573 0.178573 
0.178573 0.178573 0.178573 0.178573 0.178573 0.178573 0.178573 0.178573 0.178573 
0.178573 0.178573 0.178573 0.178573 0.178573 0.178573 0.178573 0.178573 0.178573 
0.178573 0.178573 0.178573 0.178573 0.178573 0.178573 0.178573 0.178573 0.178573 
0.178573 0.178573 0.178573 0.178573 0.178573 0.178573 0.178573 0.178573 0.178573 
0.178573 0.178573 0.178573 0.178573 0.178573 0.178573 0.178573 0.178573 0.178573 
0.178573 0.178573 0.178573 0.178573 0.178573 0.178573 0.178573 0.178573 0.178573 
0.178573 0.178573 0.178573 0.178573 0.178573 0.178573 0.178573 0.178573 0.178573 
0.178573 0.178573 0.178573 0.178573 0.178573 0.178573 0.178573 0.178573 0.178573 
0.178573 0.178573 0.178573 0.178573 0.178573 0.178573 0.178573 0.178573 0.178573 
0.178573 0.178573 0.178573 0.178573 0.178573 0.178573 0.178573 0.178573 0.178573 
0.178573 0.178573 0.178573 0.178573 0.178573 0.178573 0.178573 0.178573 0.178573 
0.178573 0.178573 0.178573 0.178573 0.178573 0.178573 0.178573 0.178573 0.178573 
0.178573 0.178573 0.178573 0.178573 0.178573 0.178573 0.178573 0.178573 0.178573 
0.178573 0.178573 0.178573 0.178573 0.178573 0.178573 0.178573 0.178573 0.178573 
0.178573 0.178573 0.178573 0.178573 0.178573 0.178573 0.178573 0.178573 0.178573 
0.178573 0.178573 0.178573 0.178573 0.178573 0.178573 0.178573 0.178573 0.178573 
0.178573 0.178573 0.178573 0.178573 0.178573 0.178573 0.178573 0.178573 0.178573 
0.178573 0.178573 0.178573 0.178573 0.178573 0.178573 0.178573 0.178573 0.178573 
0.178573 0.178573 0.178573 0.178573 0.178573 0.178573 0.178573 0.178573 0.178573 
0.178573 0.178573 0.178573 0.178573 0.178573 0.178573 0.178573 0.178573 0.178573 
0.178573 0.178573 0.178573 0.178573 0.178573 0.178573 0.178573 0.178573 0.178573 
0.178573 0.178573 0.178573 0.178573 0.178573 0.178573 0.178573 0.178573 0.178573 
0.178573 0.178573 0.178573 0.178573 0.178573 0.178573 0.178573 0.178573 0.178573 
0.178573 0.178573 0.178573 0.178573 0.178573 0.178573 0.178573 0.178573 0.178573 
0.178573 0.178573 0.178573 0.178573 0.178573 0.178573 0.178573 0.178573 0.178573 
0.178573 0.178573 0.178573 0.178573 0.178573 0.178573 0.178573 0.178573 0.178573 
0.178573 0.178573 0.178573 0.178573 0.178573 0.178573 0.178573 0.178573 0.178573 
0.178573 0.178573 0.178573 0.178573 0.178573 0.178573 0.178573 0.178573 0.178573 
0.178573 0.178573 0.178573 0.178573 0.178573 0.178573 0.178573 0.178573 0.178573 
0.178573 0.178573 0.178573 0.178573 0.178573 0.178573 0.178573 0.178573 0.178573 
0.178573 0.178573 0.178573 0.178573 0.178573 0.178573 0.178573 0.178573 0.178573 
0.178573 0.178573 0.178573 0.178573 0.178573 0.178573 0.178573 0.178573 0.178573 
0.178573 0.178573 0.178573 0.178573 0.178573 0.178573 0.178573 0.178573 0.178573 
0.178573 0.178573 0.178573 0.178573 0.178573 0.178573 0.178573 0.178573 0.178573 
0.178573 0.178573 0.178573 0.178573 0.178573 0.178573 0.178573 0.178573 0.178573 
0.178573 0.178573 0.178573 0.178573 0.178573 0.178573 0.178573 0.178573 0.178573 
0.178573 0.178573 0.178573 0.178573 0.178573 0.178573 0.178573 0.178573 0.178573 
0.178573 0.178573 0.178573 0.178573 0.178573 0.178573 0.178573 0.178573 0.178573 
0.178573 0.178573 0.178573 0.178573 0.178573 0.178573 0.178573 0.178573 0.178573 
0.178573 0.178573 0.178573 0.178573 0.178573 0.178573 0.178573 0.178573 0.178573 
0.178573 0.178573 0.178573 0.178573 0.178573 0.178573 0.178573 0.178573 0.178573 
0.178573 0.178573 0.178573 0.178573 0.178573 0.178573 0.178573 0.178573 0.178573 
0.178573 0.178573 0.178573 0.178573 0.178573 0.178573 0.178573 0.178573 0.178573 
0.178573 0.178573 0.178573 0.178573 0.178573 0.178573 0.178573 0.178573 0.178573 
0.178573 0.178573 0.178573 0.178573 0.178573 0.178573 0.178573 0.178573 0.178573 
0.178573 0.178573 0.178573 0.178573 0.178573 0.178573 0.178573 0.178573 0.178573 
0.178573 0.178573 0.178573 0.178573 0.178573 0.178573 0.178573 0.178573 0.178573 
0.178573 0.178573 0.178573 0.178573 0.178573 0.178573 0.178573 0.178573 0.178573 
0.178573 0.178573 0.178573 0.178573 0.178573 0.178573 0.178573 0.178573 0.178573 
0.178573 0.178573 0.178573 0.178573 0.178573 0.178573 0.178573 0.178573 0.178573 
0.178573 0.178573 0.178573 0.178573 0.178573 0.178573 0.178573 0.178573 0.178573 
0.178573 0.178573 0.178573 0.178573 0.178573 0.178573 0.178573 0.178573 0.178573 
0.178573 0.178573 0.178573 0.178573 0.178573 0.178573 0.178573 0.178573 0.178573 
0.178573 0.178573 0.178573 0.178573 0.178573 0.178573 0.178573 0.178573 0.178573 
0.178573 0.178573 0.178573 0.178573 0.178573 0.178573 0.178573 0.178573 0.178573 
0.178573 0.178573 0.178573 0.178573 0.178573 0.178573 0.178573 0.178573 0.178573 
0.178573 0.178573 0.178573 0.178573 0.178573 0.178573 0.178573 0.178573 0.178573 
0.178573 0.178573 0.178573 0.178573 0.178573 0.178573 0.178573 0.178573 0.178573 
0.178573 0.178573 0.178573 0.178573 0.178573 0.178573 0.178573 0.178573 0.178573 
0.178573 0.178573 0.178573 0.178573 0.178573 0.178573 0.178573 0.178573 0.178573 
0.178573 0.178573 0.178573 0.178573 0.178573 0.178573 0.178573 0.178573 0.178573 
0.178573 0.178573 0.178573 0.178573 0.178573 0.178573 0.178573 0.178573 0.178573 
0.178573 0.178573 0.178573 0.178573 0.178573 0.178573 0.178573 0.178573 0.178573 
0.178573 0.178573 0.178573 0.178573 0.178573 0.178573 0.178573 0.178573 0.178573 
0.178573 0.178573 0.178573 0.178573 0.178573 0.178573 0.178573 0.178573 0.178573 
0.178573 0.178573 0.178573 0.178573 0.178573 0.178573 0.178573 0.178573 0.178573 
0.178573 0.178573 0.178573 0.178573 0.178573 0.178573 0.178573 0.178573 0.178573 
0.178573 0.178573 0.178573 0.178573 0.178573 0.178573 0.178573 0.178573 0.178573 
0.178573 0.178573 0.178573 0.178573 0.178573 0.178573 0.178573 0.178573 0.178573 
0.178573 0.178573 0.178573 0.178573 0.178573 0.178573 0.178573 0.178573 0.178573 
0.178573 0.178573 0.178573 0.178573 0.178573 0.178573 0.178573 0.178573 0.178573 
0.178573 0.178573 0.178573 0.178573 0.178573 0.178573 0.178573 0.178573 0.178573 
0.178573 0.178573 0.178573 0.178573 0.178573 0.178573 0.178573 0.178573 0.178573 
0.178573 0.178573 0.178573 0.178573 0.178573 0.178573 0.178573 0.178573 0.178573 
0.178573 0.178573 0.178573 0.178573 0.178573 0.178573 0.178573 0.178573 0.178573 
0.178573 0.178573 0.178573 0.178573 0.178573 0.178573 0.178573 0.178573 0.178573 
0.178573 0.178573 0.178573 0.178573 0.178573 0.178573 0.178573 0.178573 0.178573 
0.178573 0.178573 0.178573 0.178573 0.178573 0.178573 0.178573 0.178573 0.178573 
0.178573 0.178573 0.178573 0.178573 0.178573 0.178573 0.178573 0.178573 0.178573 
0.178573 0.178573 0.178573 0.178573 0.178573 0.178573 0.178573 0.178573 0.178573 
0.178573 0.178573 0.178573 0.178573 0.178573 0.178573 0.178573 0.178573 0.178573 
0.178573 0.178573 0.178573 0.178573 0.178573 0.178573 0.178573 0.178573 0.178573 
0.178573 0.178573 0.178573 0.178573 0.178573 0.178573 0.178573 0.178573 0.178573 
0.178573 0.178573 0.178573 0.178573 0.178573 0.178573 0.178573 0.178573 0.178573 
0.178573 0.178573 0.178573 0.178573 0.178573 0.178573 0.178573 0.178573 0.178573 
0.178573 0.178573 0.178573 0.178573 0.178573 0.178573 0.178573 0.178573 0.178573 
0.178573 0.178573 0.178573 0.178573 0.178573 0.178573 0.178573 0.178573 0.178573 
0.178573 0.178573 0.178573 0.178573 0.178573 0.178573 0.178573 0.178573 0.178573 
0.178573 0.178573 0.178573 0.178573 0.178573 0.178573 0.178573 0.178573 0.178573 
0.178573 0.178573 0.178573 0.178573 0.178573 0.178573 0.178573 0.178573 0.178573 
0.178573 0.178573 0.178573 0.178573 0.178573 0.178573 0.178573 0.178573 0.178573 
0.178573 0.178573 0.178573 0.178573 0.178573 0.178573 0.178573 0.178573 0.178573 
0.178573 0.178573 0.178573 0.178573 0.178573 0.178573 0.178573 0.178573 0.178573 
0.178573 0.178573 0.178573 0.178573 0.178573 0.178573 0.178573 0.178573 0.178573 
0.178573 0.178573 0.178573 0.178573 0.178573 0.178573 0.178573 0.178573 0.178573 
0.178573 0.178573 0.178573 0.178573 0.178573 0.178573 0.178573 0.178573 0.178573 
0.178573 0.178573 0.178573 0.178573 0.178573 0.178573 0.178573 0.178573 0.178573 
0.178573 0.178573 0.178573 0.178573 0.178573 0.178573 0.178573 0.178573 0.178573 
0.178573 0.178573 0.178573 0.178573 0.178573 0.178573 0.178573 0.178573 0.178573 
0.178573 0.178573 0.178573 0.178573 0.178573 0.178573 0.178573 0.178573 0.178573 
0.178573 0.178573 0.178573 0.178573 0.178573 0.178573 0.178573 0.178573 0.178573 
0.178573 0.178573 0.178573 0.178573 0.178573 0.178573 0.178573 0.178573 0.178573 
0.178573 0.178573 0.178573 0.178573 0.178573 0.178573 0.178573 0.178573 0.178573 
0.178573 0.178573 0.178573 0.178573 0.178573 0.178573 0.178573 0.178573 0.178573 
0.178573 0.178573 0.178573 0.178573 0.178573 0.178573 0.178573 0.178573 0.178573 
0.178573 0.178573 0.178573 0.178573 0.178573 0.178573 0.178573 0.178573 0.178573 
0.178573 0.178573 0.178573 0.178573 0.178573 0.178573 0.178573 0.178573 0.178573 
0.178573 0.178573 0.178573 0.178573 0.178573 0.178573 0.178573 0.178573 0.178573 
0.178573 0.178573 0.178573 0.178573 0.178573 0.178573 0.178573 0.178573 0.178573 
0.178573 0.178573 0.178573 0.178573 0.178573 0.178573 0.178573 0.178573 0.178573 
0.178573 0.178573 0.178573 0.178573 0.178573 0.178573 0.178573 0.178573 0.178573 
0.178573 0.178573 0.178573 0.178573 0.178573 0.178573 0.178573 0.178573 0.178573 
0.178573 0.178573 0.178573 0.178573 0.178573 0.178573 0.178573 0.178573 0.178573 
0.178573 0.178573 0.178573 0.178573 0.178573 0.178573 0.178573 0.178573 0.178573 
0.178573 0.178573 0.178573 0.178573 0.178573 0.178573 0.178573 0.178573 0.178573 
0.178573 0.178573 0.178573 0.178573 0.178573 0.178573 0.178573 0.178573 0.178573 
0.178573 0.178573 0.178573 0.178573 0.178573 0.178573 0.178573 0.178573 0.178573 
0.178573 0.178573 0.178573 0.178573 0.178573 0.178573 0.178573 0.178573 0.178573 
0.178573 0.178573 0.178573 0.178573 0.178573 0.178573 0.178573 0.178573 0.178573 
0.178573 0.178573 0.178573 0.178573 0.178573 0.178573 0.178573 0.178573 0.178573 
0.178573 0.178573 0.178573 0.178573 0.178573 0.178573 0.178573 0.178573 0.178573 
0.178573 0.178573 0.178573 0.178573 0.178573 0.178573 0.178573 0.178573 0.178573 
0.178573 0.178573 0.178573 0.178573 0.178573 0.178573 0.178573 0.178573 0.178573 
0.178573 0.178573 0.178573 0.178573 0.178573 0.178573 0.178573 0.178573 0.178573 
0.178573 0.178573 0.178573 0.178573 0.178573 0.178573 0.178573 0.178573 0.178573 
0.178573 0.178573 0.178573 0.178573 0.178573 0.178573 0.178573 0.178573 0.178573 
0.178573 0.178573 0.178573 0.178573 0.178573 0.178573 0.178573 0.178573 0.178573 
0.178573 0.178573 0.178573 0.178573 0.178573 0.178573 0.178573 0.178573 0.178573 
0.178573 0.178573 0.178573 0.178573 0.178573 0.178573 0.178573 0.178573 0.178573 
0.178573 0.178573 0.178573 0.178573 0.178573 0.178573 0.178573 0.178573 0.178573 
0.178573 0.178573 0.178573 0.178573 0.178573 0.178573 0.178573 0.178573 0.178573 
0.178573 0.178573 0.178573 0.178573 0.178573 0.178573 0.178573 0.178573 0.178573 
0.178573 0.178573 0.178573 0.178573 0.178573 0.178573 0.178573 0.178573 0.178573 
0.178573 0.178573 0.178573 0.178573 0.178573 0.178573 0.178573 0.178573 0.178573 
0.178573 0.178573 0.178573 0.178573 0.178573 0.178573 0.178573 0.178573 0.178573 
0.178573 0.178573 0.178573 0.178573 0.178573 0.178573 0.178573 0.178573 0.178573 
0.178573 0.178573 0.178573 0.178573 0.178573 0.178573 0.178573 0.178573 0.178573 
0.178573 0.178573 0.178573 0.178573 0.178573 0.178573 0.178573 0.178573 0.178573 
0.178573 0.178573 0.178573 0.178573 0.178573 0.178573 0.178573 0.178573 0.178573 
0.178573 0.178573 0.178573 0.178573 0.178573 0.178573 0.178573 0.178573 0.178573 
0.178573 0.178573 0.178573 0.178573 0.178573 0.178573 0.178573 0.178573 0.178573 
0.178573 0.178573 0.178573 0.178573 0.178573 0.178573 0.178573 0.178573 0.178573 
0.178573 0.178573 0.178573 0.178573 0.178573 0.178573 0.178573 0.178573 0.178573 
0.178573 0.178573 0.178573 0.178573 0.178573 0.178573 0.178573 0.178573 0.178573 
0.178573 0.178573 0.178573 0.178573 0.178573 0.178573 0.178573 0.178573 0.178573 
0.178573 0.178573 0.178573 0.178573 0.178573 0.178573 0.178573 0.178573 0.178573 
0.178573 0.178573 0.178573 0.178573 0.178573 0.178573 0.178573 0.178573 0.178573 
0.178573 0.178573 0.178573 0.178573 0.178573 0.178573 0.178573 0.178573 0.178573 
0.178573 0.178573 0.178573 0.178573 0.178573 0.178573 0.178573 0.178573 0.178573 
0.178573 0.178573 0.178573 0.178573 0.178573 0.178573 0.178573 0.178573 0.178573 
0.178573 0.178573 0.178573 0.178573 0.178573 0.178573 0.178573 0.178573 0.178573 
0.178573 0.178573 0.178573 0.178573 0.178573 0.178573 0.178573 0.178573 0.178573 
0.178573 0.178573 0.178573 0.178573 0.178573 0.178573 0.178573 0.178573 0.178573 
0.178573 0.178573 0.178573 0.178573 0.178573 0.178573 0.178573 0.178573 0.178573 
0.178573 0.178573 0.178573 0.178573 0.178573 0.178573 0.178573 0.178573 0.178573 
0.178573 0.178573 0.178573 0.178573 0.178573 0.178573 0.178573 0.178573 0.178573 
0.178573 0.178573 0.178573 0.178573 0.178573 0.178573 0.178573 0.178573 0.178573 
0.178573 0.178573 0.178573 0.178573 0.178573 0.178573 0.178573 0.178573 0.178573 
0.178573 0.178573 0.178573 0.178573 0.178573 0.178573 0.178573 0.178573 0.178573 
0.178573 0.178573 0.178573 0.178573 0.178573 0.178573 0.178573 0.178573 0.178573 
0.178573 0.178573 0.178573 0.178573 0.178573 0.178573 0.178573 0.178573 0.178573 
0.178573 0.178573 0.178573 0.178573 0.178573 0.178573 0.178573 0.178573 0.178573 
0.178573 0.178573 0.178573 0.178573 0.178573 0.178573 0.178573 0.178573 0.178573 
0.178573 0.178573 0.178573 0.178573 0.178573 0.178573 0.178573 0.178573 0.178573 
0.178573 0.178573 0.178573 0.178573 0.178573 0.178573 0.178573 0.178573 0.178573 
0.178573 0.178573 0.178573 0.178573 0.178573 0.178573 0.178573 0.178573 0.178573 
0.178573 0.178573 0.178573 0.178573 0.178573 0.178573 0.178573 0.178573 0.178573 
0.178573 0.178573 0.178573 0.178573 0.178573 0.178573 0.178573 0.178573 0.178573 
0.178573 0.178573 0.178573 0.178573 0.178573 0.178573 0.178573 0.178573 0.178573 
0.178573 0.178573 0.178573 0.178573 0.178573 0.178573 0.178573 0.178573 0.178573 
0.178573 0.178573 0.178573 0.178573 0.178573 0.178573 0.178573 0.178573 0.178573 
0.178573 0.178573 0.178573 0.178573 0.178573 0.178573 0.178573 0.178573 0.178573 
0.178573 0.178573 0.178573 0.178573 0.178573 0.178573 0.178573 0.178573 0.178573 
0.178573 0.178573 0.178573 0.178573 0.178573 0.178573 0.178573 0.178573 0.178573 
0.178573 0.178573 0.178573 0.178573 0.178573 0.178573 0.178573 0.178573 0.178573 
0.178573 0.178573 0.178573 0.178573 0.178573 0.178573 0.178573 0.178573 0.178573 
0.178573 0.178573 0.178573 0.178573 0.178573 0.178573 0.178573 0.178573 0.178573 
0.178573 0.178573 0.178573 0.178573 0.178573 0.178573 0.178573 0.178573 0.178573 
0.178573 0.178573 0.178573 0.178573 0.178573 0.178573 0.178573 0.178573 0.178573 
0.178573 0.178573 0.178573 0.178573 0.178573 0.178573 0.178573 0.178573 0.178573 
0.178573 0.178573 0.178573 0.178573 0.178573 0.178573 0.178573 0.178573 0.178573 
0.178573 0.178573 0.178573 0.178573 0.178573 0.178573 0.178573 0.178573 0.178573 
0.178573 0.178573 0.178573 0.178573 0.178573 0.178573 0.178573 0.178573 0.178573 
0.178573 0.178573 0.178573 0.178573 0.178573 0.178573 0.178573 0.178573 0.178573 
0.178573 0.178573 0.178573 0.178573 0.178573 0.178573 0.178573 0.178573 0.178573 
0.178573 0.178573 0.178573 0.178573 0.178573 0.178573 0.178573 0.178573 0.178573 
0.178573 0.178573 0.178573 0.178573 0.178573 0.178573 0.178573 0.178573 0.178573 
0.178573 0.178573 0.178573 0.178573 0.178573 0.178573 0.178573 0.178573 0.178573 
0.178573 0.178573 0.178573 0.178573 0.178573 0.178573 0.178573 0.178573 0.178573 
0.178573 0.178573 0.178573 0.178573 0.178573 0.178573 0.178573 0.178573 0.178573 
0.178573 0.178573 0.178573 0.178573 0.178573 0.178573 0.178573 0.178573 0.178573 
0.178573 0.178573 0.178573 0.178573 0.178573 0.178573 0.178573 0.178573 0.178573 
0.178573 0.178573 0.178573 0.178573 0.178573 0.178573 0.178573 0.178573 0.178573 
0.178573 0.178573 0.178573 0.178573 0.178573 0.178573 0.178573 0.178573 0.178573 
0.178573 0.178573 0.178573 0.178573 0.178573 0.178573 0.178573 0.178573 0.178573 
0.178573 0.178573 0.178573 0.178573 0.178573 0.178573 0.178573 0.178573 0.178573 
0.178573 0.178573 0.178573 0.178573 0.178573 0.178573 0.178573 0.178573 0.178573 
0.178573 0.178573 0.178573 0.178573 0.178573 0.178573 0.178573 0.178573 0.178573 
0.178573 0.178573 0.178573 0.178573 0.178573 0.178573 0.178573 0.178573 0.178573 
0.178573 0.178573 0.178573 0.178573 0.178573 0.178573 0.178573 0.178573 0.178573 
0.178573 0.178573 0.178573 0.178573 0.178573 0.178573 0.178573 0.178573 0.178573 
0.178573 0.178573 0.178573 0.178573 0.178573 0.178573 0.178573 0.178573 0.178573 
0.178573 0.178573 0.178573 0.178573 0.178573 0.178573 0.178573 0.178573 0.178573 
0.178573 0.178573 0.178573 0.178573 0.178573 0.178573 0.178573 0.178573 0.178573 
0.178573 0.178573 0.178573 0.178573 0.178573 0.178573 0.178573 0.178573 0.178573 
0.178573 0.178573 0.178573 0.178573 0.178573 0.178573 0.178573 0.178573 0.178573 
0.178573 0.178573 0.178573 0.178573 0.178573 0.178573 0.178573 0.178573 0.178573 
0.178573 0.178573 0.178573 0.178573 0.178573 0.178573 0.178573 0.178573 0.178573 
0.178573 0.178573 0.178573 0.178573 0.178573 0.178573 0.178573 0.178573 0.178573 
0.178573 0.178573 0.178573 0.178573 0.178573 0.178573 0.178573 0.178573 0.178573 
0.178573 0.178573 0.178573 0.178573 0.178573 0.178573 0.178573 0.178573 0.178573 
0.178573 0.178573 0.178573 0.178573 0.178573 0.178573 0.178573 0.178573 0.178573 
0.178573 0.178573 0.178573 0.178573 0.178573 0.178573 0.178573 0.178573 0.178573 
0.178573 0.178573 0.178573 0.178573 0.178573 0.178573 0.178573 0.178573 0.178573 
0.178573 0.178573 0.178573 0.178573 0.178573 0.178573 0.178573 0.178573 0.178573 
0.178573 0.178573 0.178573 0.178573 0.178573 0.178573 0.178573 0.178573 0.178573 
0.178573 0.178573 0.178573 0.178573 0.178573 0.178573 0.178573 0.178573 0.178573 
0.178573 0.178573 0.178573 0.178573 0.178573 0.178573 0.178573 0.178573 0.178573 
0.178573 0.178573 0.178573 0.178573 0.178573 0.178573 0.178573 0.178573 0.178573 