# vtk DataFile Version 5.1
vtk output
ASCII
DATASET STRUCTURED_GRID
DIMENSIONS 30 25 30
POINTS 22500 float
0 0 0.5 -0.003 0 0.5 -0.00604287 0 0.5 
-0.0091721 0 0.5 -0.0124324 0 0.5 -0.0158704 0 0.5 
-0.0195351 0 0.5 -0.0234791 0 0.5 -0.0277585 0 0.5 
-0.0324346 0 0.5 -0.0375743 0 0.5 -0.0432509 0 0.5 
-0.0495456 0 0.5 -0.0565483 0 0.5 -0.0643591 0 0.5 
-0.0730896 0 0.5 -0.0828646 0 0.5 -0.0938238 0 0.5 
-0.106124 0 0.5 -0.11994 0 0.5 -0.135471 0 0.5 
-0.152937 0 0.5 -0.172589 0 0.5 -0.194708 0 0.5 
-0.219609 0 0.5 -0.247648 0 0.5 -0.279226 0 0.5 
-0.314795 0 0.5 -0.354862 0 0.5 -0.4 0 0.5 
0 0 0.503 -0.003 0 0.503 -0.00604287 0 0.503 
-0.0091721 0 0.503 -0.0124324 0 0.503 -0.0158704 0 0.503 
-0.0195351 0 0.503 -0.0234791 0 0.503 -0.0277585 0 0.503 
-0.0324346 0 0.503 -0.0375743 0 0.503 -0.0432509 0 0.503 
-0.0495456 0 0.503 -0.0565483 0 0.503 -0.0643591 0 0.503 
-0.0730896 0 0.503 -0.0828646 0 0.503 -0.0938238 0 0.503 
-0.106124 0 0.503 -0.11994 0 0.503 -0.135471 0 0.503 
-0.152937 0 0.503 -0.172589 0 0.503 -0.194708 0 0.503 
-0.219609 0 0.503 -0.247648 0 0.503 -0.279226 0 0.503 
-0.314795 0 0.503 -0.354862 0 0.503 -0.4 0 0.503 
0 0 0.506095 -0.003 0 0.506095 -0.00604287 0 0.506095 
-0.0091721 0 0.506095 -0.0124324 0 0.506095 -0.0158704 0 0.506095 
-0.0195351 0 0.506095 -0.0234791 0 0.506095 -0.0277585 0 0.506095 
-0.0324346 0 0.506095 -0.0375743 0 0.506095 -0.0432509 0 0.506095 
-0.0495456 0 0.506095 -0.0565483 0 0.506095 -0.0643591 0 0.506095 
-0.0730896 0 0.506095 -0.0828646 0 0.506095 -0.0938238 0 0.506095 
-0.106124 0 0.506095 -0.11994 0 0.506095 -0.135471 0 0.506095 
-0.152937 0 0.506095 -0.172589 0 0.506095 -0.194708 0 0.506095 
-0.219609 0 0.506095 -0.247648 0 0.506095 -0.279226 0 0.506095 
-0.314795 0 0.506095 -0.354862 0 0.506095 -0.4 0 0.506095 
0 0 0.509384 -0.003 0 0.509384 -0.00604287 0 0.509384 
-0.0091721 0 0.509384 -0.0124324 0 0.509384 -0.0158704 0 0.509384 
-0.0195351 0 0.509384 -0.0234791 0 0.509384 -0.0277585 0 0.509384 
-0.0324346 0 0.509384 -0.0375743 0 0.509384 -0.0432509 0 0.509384 
-0.0495456 0 0.509384 -0.0565483 0 0.509384 -0.0643591 0 0.509384 
-0.0730896 0 0.509384 -0.0828646 0 0.509384 -0.0938238 0 0.509384 
-0.106124 0 0.509384 -0.11994 0 0.509384 -0.135471 0 0.509384 
-0.152937 0 0.509384 -0.172589 0 0.509384 -0.194708 0 0.509384 
-0.219609 0 0.509384 -0.247648 0 0.509384 -0.279226 0 0.509384 
-0.314795 0 0.509384 -0.354862 0 0.509384 -0.4 0 0.509384 
0 0 0.512971 -0.003 0 0.512971 -0.00604287 0 0.512971 
-0.0091721 0 0.512971 -0.0124324 0 0.512971 -0.0158704 0 0.512971 
-0.0195351 0 0.512971 -0.0234791 0 0.512971 -0.0277585 0 0.512971 
-0.0324346 0 0.512971 -0.0375743 0 0.512971 -0.0432509 0 0.512971 
-0.0495456 0 0.512971 -0.0565483 0 0.512971 -0.0643591 0 0.512971 
-0.0730896 0 0.512971 -0.0828646 0 0.512971 -0.0938238 0 0.512971 
-0.106124 0 0.512971 -0.11994 0 0.512971 -0.135471 0 0.512971 
-0.152937 0 0.512971 -0.172589 0 0.512971 -0.194708 0 0.512971 
-0.219609 0 0.512971 -0.247648 0 0.512971 -0.279226 0 0.512971 
-0.314795 0 0.512971 -0.354862 0 0.512971 -0.4 0 0.512971 
0 0 0.516969 -0.003 0 0.516969 -0.00604287 0 0.516969 
-0.0091721 0 0.516969 -0.0124324 0 0.516969 -0.0158704 0 0.516969 
-0.0195351 0 0.516969 -0.0234791 0 0.516969 -0.0277585 0 0.516969 
-0.0324346 0 0.516969 -0.0375743 0 0.516969 -0.0432509 0 0.516969 
-0.0495456 0 0.516969 -0.0565483 0 0.516969 -0.0643591 0 0.516969 
-0.0730896 0 0.516969 -0.0828646 0 0.516969 -0.0938238 0 0.516969 
-0.106124 0 0.516969 -0.11994 0 0.516969 -0.135471 0 0.516969 
-0.152937 0 0.516969 -0.172589 0 0.516969 -0.194708 0 0.516969 
-0.219609 0 0.516969 -0.247648 0 0.516969 -0.279226 0 0.516969 
-0.314795 0 0.516969 -0.354862 0 0.516969 -0.4 0 0.516969 
0 0 0.521506 -0.003 0 0.521506 -0.00604287 0 0.521506 
-0.0091721 0 0.521506 -0.0124324 0 0.521506 -0.0158704 0 0.521506 
-0.0195351 0 0.521506 -0.0234791 0 0.521506 -0.0277585 0 0.521506 
-0.0324346 0 0.521506 -0.0375743 0 0.521506 -0.0432509 0 0.521506 
-0.0495456 0 0.521506 -0.0565483 0 0.521506 -0.0643591 0 0.521506 
-0.0730896 0 0.521506 -0.0828646 0 0.521506 -0.0938238 0 0.521506 
-0.106124 0 0.521506 -0.11994 0 0.521506 -0.135471 0 0.521506 
-0.152937 0 0.521506 -0.172589 0 0.521506 -0.194708 0 0.521506 
-0.219609 0 0.521506 -0.247648 0 0.521506 -0.279226 0 0.521506 
-0.314795 0 0.521506 -0.354862 0 0.521506 -0.4 0 0.521506 
0 0 0.526726 -0.003 0 0.526726 -0.00604287 0 0.526726 
-0.0091721 0 0.526726 -0.0124324 0 0.526726 -0.0158704 0 0.526726 
-0.0195351 0 0.526726 -0.0234791 0 0.526726 -0.0277585 0 0.526726 
-0.0324346 0 0.526726 -0.0375743 0 0.526726 -0.0432509 0 0.526726 
-0.0495456 0 0.526726 -0.0565483 0 0.526726 -0.0643591 0 0.526726 
-0.0730896 0 0.526726 -0.0828646 0 0.526726 -0.0938238 0 0.526726 
-0.106124 0 0.526726 -0.11994 0 0.526726 -0.135471 0 0.526726 
-0.152937 0 0.526726 -0.172589 0 0.526726 -0.194708 0 0.526726 
-0.219609 0 0.526726 -0.247648 0 0.526726 -0.279226 0 0.526726 
-0.314795 0 0.526726 -0.354862 0 0.526726 -0.4 0 0.526726 
0 0 0.532795 -0.003 0 0.532795 -0.00604287 0 0.532795 
-0.0091721 0 0.532795 -0.0124324 0 0.532795 -0.0158704 0 0.532795 
-0.0195351 0 0.532795 -0.0234791 0 0.532795 -0.0277585 0 0.532795 
-0.0324346 0 0.532795 -0.0375743 0 0.532795 -0.0432509 0 0.532795 
-0.0495456 0 0.532795 -0.0565483 0 0.532795 -0.0643591 0 0.532795 
-0.0730896 0 0.532795 -0.0828646 0 0.532795 -0.0938238 0 0.532795 
-0.106124 0 0.532795 -0.11994 0 0.532795 -0.135471 0 0.532795 
-0.152937 0 0.532795 -0.172589 0 0.532795 -0.194708 0 0.532795 
-0.219609 0 0.532795 -0.247648 0 0.532795 -0.279226 0 0.532795 
-0.314795 0 0.532795 -0.354862 0 0.532795 -0.4 0 0.532795 
0 0 0.539904 -0.003 0 0.539904 -0.00604287 0 0.539904 
-0.0091721 0 0.539904 -0.0124324 0 0.539904 -0.0158704 0 0.539904 
-0.0195351 0 0.539904 -0.0234791 0 0.539904 -0.0277585 0 0.539904 
-0.0324346 0 0.539904 -0.0375743 0 0.539904 -0.0432509 0 0.539904 
-0.0495456 0 0.539904 -0.0565483 0 0.539904 -0.0643591 0 0.539904 
-0.0730896 0 0.539904 -0.0828646 0 0.539904 -0.0938238 0 0.539904 
-0.106124 0 0.539904 -0.11994 0 0.539904 -0.135471 0 0.539904 
-0.152937 0 0.539904 -0.172589 0 0.539904 -0.194708 0 0.539904 
-0.219609 0 0.539904 -0.247648 0 0.539904 -0.279226 0 0.539904 
-0.314795 0 0.539904 -0.354862 0 0.539904 -0.4 0 0.539904 
0 0 0.548281 -0.003 0 0.548281 -0.00604287 0 0.548281 
-0.0091721 0 0.548281 -0.0124324 0 0.548281 -0.0158704 0 0.548281 
-0.0195351 0 0.548281 -0.0234791 0 0.548281 -0.0277585 0 0.548281 
-0.0324346 0 0.548281 -0.0375743 0 0.548281 -0.0432509 0 0.548281 
-0.0495456 0 0.548281 -0.0565483 0 0.548281 -0.0643591 0 0.548281 
-0.0730896 0 0.548281 -0.0828646 0 0.548281 -0.0938238 0 0.548281 
-0.106124 0 0.548281 -0.11994 0 0.548281 -0.135471 0 0.548281 
-0.152937 0 0.548281 -0.172589 0 0.548281 -0.194708 0 0.548281 
-0.219609 0 0.548281 -0.247648 0 0.548281 -0.279226 0 0.548281 
-0.314795 0 0.548281 -0.354862 0 0.548281 -0.4 0 0.548281 
0 0 0.55819 -0.003 0 0.55819 -0.00604287 0 0.55819 
-0.0091721 0 0.55819 -0.0124324 0 0.55819 -0.0158704 0 0.55819 
-0.0195351 0 0.55819 -0.0234791 0 0.55819 -0.0277585 0 0.55819 
-0.0324346 0 0.55819 -0.0375743 0 0.55819 -0.0432509 0 0.55819 
-0.0495456 0 0.55819 -0.0565483 0 0.55819 -0.0643591 0 0.55819 
-0.0730896 0 0.55819 -0.0828646 0 0.55819 -0.0938238 0 0.55819 
-0.106124 0 0.55819 -0.11994 0 0.55819 -0.135471 0 0.55819 
-0.152937 0 0.55819 -0.172589 0 0.55819 -0.194708 0 0.55819 
-0.219609 0 0.55819 -0.247648 0 0.55819 -0.279226 0 0.55819 
-0.314795 0 0.55819 -0.354862 0 0.55819 -0.4 0 0.55819 
0 0 0.569947 -0.003 0 0.569947 -0.00604287 0 0.569947 
-0.0091721 0 0.569947 -0.0124324 0 0.569947 -0.0158704 0 0.569947 
-0.0195351 0 0.569947 -0.0234791 0 0.569947 -0.0277585 0 0.569947 
-0.0324346 0 0.569947 -0.0375743 0 0.569947 -0.0432509 0 0.569947 
-0.0495456 0 0.569947 -0.0565483 0 0.569947 -0.0643591 0 0.569947 
-0.0730896 0 0.569947 -0.0828646 0 0.569947 -0.0938238 0 0.569947 
-0.106124 0 0.569947 -0.11994 0 0.569947 -0.135471 0 0.569947 
-0.152937 0 0.569947 -0.172589 0 0.569947 -0.194708 0 0.569947 
-0.219609 0 0.569947 -0.247648 0 0.569947 -0.279226 0 0.569947 
-0.314795 0 0.569947 -0.354862 0 0.569947 -0.4 0 0.569947 
0 0 0.583924 -0.003 0 0.583924 -0.00604287 0 0.583924 
-0.0091721 0 0.583924 -0.0124324 0 0.583924 -0.0158704 0 0.583924 
-0.0195351 0 0.583924 -0.0234791 0 0.583924 -0.0277585 0 0.583924 
-0.0324346 0 0.583924 -0.0375743 0 0.583924 -0.0432509 0 0.583924 
-0.0495456 0 0.583924 -0.0565483 0 0.583924 -0.0643591 0 0.583924 
-0.0730896 0 0.583924 -0.0828646 0 0.583924 -0.0938238 0 0.583924 
-0.106124 0 0.583924 -0.11994 0 0.583924 -0.135471 0 0.583924 
-0.152937 0 0.583924 -0.172589 0 0.583924 -0.194708 0 0.583924 
-0.219609 0 0.583924 -0.247648 0 0.583924 -0.279226 0 0.583924 
-0.314795 0 0.583924 -0.354862 0 0.583924 -0.4 0 0.583924 
0 0 0.600565 -0.003 0 0.600565 -0.00604287 0 0.600565 
-0.0091721 0 0.600565 -0.0124324 0 0.600565 -0.0158704 0 0.600565 
-0.0195351 0 0.600565 -0.0234791 0 0.600565 -0.0277585 0 0.600565 
-0.0324346 0 0.600565 -0.0375743 0 0.600565 -0.0432509 0 0.600565 
-0.0495456 0 0.600565 -0.0565483 0 0.600565 -0.0643591 0 0.600565 
-0.0730896 0 0.600565 -0.0828646 0 0.600565 -0.0938238 0 0.600565 
-0.106124 0 0.600565 -0.11994 0 0.600565 -0.135471 0 0.600565 
-0.152937 0 0.600565 -0.172589 0 0.600565 -0.194708 0 0.600565 
-0.219609 0 0.600565 -0.247648 0 0.600565 -0.279226 0 0.600565 
-0.314795 0 0.600565 -0.354862 0 0.600565 -0.4 0 0.600565 
0 0 0.6204 -0.003 0 0.6204 -0.00604287 0 0.6204 
-0.0091721 0 0.6204 -0.0124324 0 0.6204 -0.0158704 0 0.6204 
-0.0195351 0 0.6204 -0.0234791 0 0.6204 -0.0277585 0 0.6204 
-0.0324346 0 0.6204 -0.0375743 0 0.6204 -0.0432509 0 0.6204 
-0.0495456 0 0.6204 -0.0565483 0 0.6204 -0.0643591 0 0.6204 
-0.0730896 0 0.6204 -0.0828646 0 0.6204 -0.0938238 0 0.6204 
-0.106124 0 0.6204 -0.11994 0 0.6204 -0.135471 0 0.6204 
-0.152937 0 0.6204 -0.172589 0 0.6204 -0.194708 0 0.6204 
-0.219609 0 0.6204 -0.247648 0 0.6204 -0.279226 0 0.6204 
[...]
POINT_DATA 22500
FIELD FieldData 5
pressure 1 22500 float
0.252999 0.178573 0.178573 0.178573 0.178573 0.178573 0.178573 0.178573 0.178573 
0.178573 0.178573 0.178573 0.178573 0.178573 0.178573 0.178573 0.178573 0.178573 
0.178573 0.178573 0.178573 0.178573 0.178573 0.178573 0.178573 0.178573 0.178573 
0.178573 0.178573 0.178573 0.178573 0.178573 0.178573 0.178573 0.178573 0.178573 
0.178573 0.178573 0.178573 0.178573 0.178573 0.178573 0.178573 0.178573 0.178573 
0.178573 0.178573 0.178573 0.178573 0.178573 0.178573 0.178573 0.178573 0.178573 
0.178573 0.178573 0.178573 0.178573 0.178573 0.178573 0.178573 0.178573 0.178573 
0.178573 0.178573 0.178573 0.178573 0.178573 0.178573 0.178573 0.178573 0.178573 
0.178573 0.178573 0.178573 0.178573 0.178573 0.178573 0.178573 0.178573 0.178573 
0.178573 0.178573 0.178573 0.178573 0.178573 0.178573 0.178573 0.178573 0.178573 
0.178573 0.178573 0.178573 0.178573 0.178573 0.178573 0.178573 0.178573 0.178573 
0.178573 0.178573 0.178573 0.178573 0.178573 0.178573 0.178573 0.178573 0.178573 
0.178573 0.178573 0.178573 0.178573 0.178573 0.178573 0.178573 0.178573 0.178573 
0.178573 0.178573 0.178573 0.178573 0.178573 0.178573 0.178573 0.178573 0.178573 
0.178573 0.178573 0.178573 0.178573 0.178573 0.178573 0.178573 0.178573 0.178573 
0.178573 0.178573 0.178573 0.178573 0.178573 0.178573 0.178573 0.178573 0.178573 
0.178573 0.178573 0.178573 0.178573 0.178573 0.178573 0.178573 0.178573 0.178573 
0.178573 0.178573 0.178573 0.178573 0.178573 0.178573 0.178573 0.178573 0.178573 
0.178573 0.178573 0.178573 0.178573 0.178573 0.178573 0.178573 0.178573 0.178573 
0.178573 0.178573 0.178573 0.178573 0.178573 0.178573 0.178573 0.178573 0.178573 
0.178573 0.178573 0.178573 0.178573 0.178573 0.178573 0.178573 0.178573 0.178573 
0.178573 0.178573 0.178573 0.178573 0.178573 0.178573 0.178573 0.178573 0.178573 
0.178573 0.178573 0.178573 0.178573 0.178573 0.178573 0.178573 0.178573 0.178573 
0.178573 0.178573 0.178573 0.178573 0.178573 0.178573 0.178573 0.178573 0.178573 
0.178573 0.178573 0.178573 0.178573 0.178573 0.178573 0.178573 0.178573 0.178573 
0.178573 0.178573 0.178573 0.178573 0.178573 0.178573 0.178573 0.178573 0.178573 
0.178573 0.178573 0.178573 0.178573 0.178573 0.178573 0.178573 0.178573 0.178573 
0.178573 0.178573 0.178573 0.178573 0.178573 0.178573 0.178573 0.178573 0.178573 
0.178573 0.178573 0.178573 0.178573 0.178573 0.178573 0.178573 0.178573 0.178573 
0.178573 0.178573 0.178573 0.178573 0.178573 0.178573 0.178573 0.178573 0.178573 
0.178573 0.178573 0.178573 0.178573 0.178573 0.178573 0.178573 0.178573 0.178573 
0.178573 0.178573 0.178573 0.178573 0.178573 0.178573 0.178573 0.178573 0.178573 
0.178573 0.178573 0.178573 0.178573 0.178573 0.178573 0.178573 0.178573 0.178573 
0.178573 0.178573 0.178573 0.178573 0.178573 0.178573 0.178573 0.178573 0.178573 
0.178573 0.178573 0.178573 0.178573 0.178573 0.178573 0.178573 0.178573 0.178573 
0.178573 0.178573 0.178573 0.178573 0.178573 0.178573 0.178573 0.178573 0.178573 
0.178573 0.178573 0.178573 0.178573 0.178573 0.178573 0.178573 0.178573 0.178573 
0.178573 0.178573 0.178573 0.178573 0.178573 0.178573 0.178573 0.178573 0.178573 
0.178573 0.178573 0.178573 0.178573 0.178573 0.178573 0.178573 0.178573 0.178573 
0.178573 0.178573 0.178573 0.178573 0.178573 0.178573 0.178573 0.178573 0.178573 
0.178573 0.178573 0.178573 0.178573 0.178573 0.178573 0.178573 0.178573 0.178573 
0.178573 0.178573 0.178573 0.178573 0.178573 0.178573 0.178573 0.178573 0.178573 
0.178573 0.178573 0.178573 0.178573 0.178573 0.178573 0.178573 0.178573 0.178573 
0.178573 0.178573 0.178573 0.178573 0.178573 0.178573 0.178573 0.178573 0.178573 
0.178573 0.178573 0.178573 0.178573 0.178573 0.178573 0.178573 0.178573 0.178573 
0.178573 0.178573 0.178573 0.178573 0.178573 0.178573 0.178573 0.178573 0.178573 
0.178573 0.178573 0.178573 0.178573 0.178573 0.178573 0.178573 0.178573 0.178573 
0.178573 0.178573 0.178573 0.178573 0.178573 0.178573 0.178573 0.178573 0.178573 
0.178573 0.178573 0.178573 0.178573 0.178573 0.178573 0.178573 0.178573 0.178573 
0.178573 0.178573 0.178573 0.178573 0.178573 0.178573 0.178573 0.178573 0.178573 
0.178573 0.178573 0.178573 0.178573 0.178573 0.178573 0.178573 0.178573 0.178573 
0.178573 0.178573 0.178573 0.178573 0.178573 0.178573 0.178573 0.178573 0.178573 
0.178573 0.178573 0.178573 0.178573 0.178573 0.178573 0.178573 0.178573 0.178573 
0.178573 0.178573 0.178573 0.178573 0.178573 0.178573 0.178573 0.178573 0.178573 
0.178573 0.178573 0.178573 0.178573 0.178573 0.178573 0.178573 0.178573 0.178573 
0.178573 0.178573 0.178573 0.178573 0.178573 0.178573 0.178573 0.178573 0.178573 
0.178573 0.178573 0.178573 0.178573 0.178573 0.178573 0.178573 0.178573 0.178573 
0.178573 0.178573 0.178573 0.178573 0.178573 0.178573 0.178573 0.178573 0.178573 
0.178573 0.178573 0.178573 0.178573 0.178573 0.178573 0.178573 0.178573 0.178573 
0.178573 0.178573 0.178573 0.178573 0.178573 0.178573 0.178573 0.178573 0.178573 
0.178573 0.178573 0.178573 0.178573 0.178573 0.178573 0.178573 0.178573 0.178573 
0.178573 0.178573 0.178573 0.178573 0.178573 0.178573 0.178573 0.178573 0.178573 
0.178573 0.178573 0.178573 0.178573 0.178573 0.178573 0.178573 0.178573 0.178573 
0.178573 0.178573 0.178573 0.178573 0.178573 0.178573 0.178573 0.178573 0.178573 
0.178573 0.178573 0.178573 0.178573 0.178573 0.178573 0.178573 0.178573 0.178573 
0.178573 0.178573 0.178573 0.178573 0.178573 0.178573 0.178573 0.178573 0.178573 
0.178573 0.178573 0.178573 0.178573 0.178573 0.178573 0.178573 0.178573 0.178573 
0.178573 0.178573 0.178573 0.178573 0.178573 0.178573 0.178573 0.178573 0.178573 
0.178573 0.178573 0.178573 0.178573 0.178573 0.178573 0.178573 0.178573 0.178573 
0.178573 0.178573 0.178573 0.178573 0.178573 0.178573 0.178573 0.178573 0.178573 
0.178573 0.178573 0.178573 0.178573 0.178573 0.178573 0.178573 0.178573 0.178573 
0.178573 0.178573 0.178573 0.178573 0.178573 0.178573 0.178573 0.178573 0.178573 
0.178573 0.178573 0.178573 0.178573 0.178573 0.178573 0.178573 0.178573 0.178573 
0.178573 0.178573 0.178573 0.178573 0.178573 0.178573 0.178573 0.178573 0.178573 
0.178573 0.178573 0.178573 0.178573 0.178573 0.178573 0.178573 0.178573 0.178573 
0.178573 0.178573 0.178573 0.178573 0.178573 0.178573 0.178573 0.178573 0.178573 
0.178573 0.178573 0.178573 0.178573 0.178573 0.178573 0.178573 0.178573 0.178573 
0.178573 0.178573 0.178573 0.178573 0.178573 0.178573 0.178573 0.178573 0.178573 
0.178573 0.178573 0.178573 0.178573 0.178573 0.178573 0.178573 0.178573 0.178573 
0.178573 0.178573 0.178573 0.178573 0.178573 0.178573 0.178573 0.178573 0.178573 
0.178573 0.178573 0.178573 0.178573 0.178573 0.178573 0.178573 0.178573 0.178573 
0.178573 0.178573 0.178573 0.178573 0.178573 0.178573 0.178573 0.178573 0.178573 
0.178573 0.178573 0.178573 0.178573 0.178573 0.178573 0.178573 0.178573 0.178573 
0.178573 0.178573 0.178573 0.252997 0.1786 0.178576 0.178572 0.178574 0.178572 
0.178573 0.178573 0.178573 0.178573 0.178573 0.178573 0.178573 0.178573 0.178573 
0.178573 0.178573 0.178573 0.178573 0.178573 0.178573 0.178573 0.178573 0.178573 
0.178573 0.178573 0.178573 0.178573 0.178573 0.178573 0.18689 0.178596 0.178559 
0.178573 0.17857 0.178573 0.178573 0.178573 0.178573 0.178573 0.178573 0.178573 
0.178573 0.178573 0.178573 0.178573 0.178573 0.178573 0.178573 0.178573 0.178573 
0.178573 0.178573 0.178573 0.178573 0.178573 0.178573 0.178573 0.178573 0.178573 
0.178791 0.178565 0.178573 0.178574 0.17857 0.178573 0.178572 0.178573 0.178573 
0.178573 0.178573 0.178573 0.178573 0.178573 0.178573 0.178573 0.178573 0.178573 
0.178573 0.178573 0.178573 0.178573 0.178573 0.178573 0.178573 0.178573 0.178573 
0.178573 0.178573 0.178573 0.178584 0.178564 0.178574 0.178568 0.178573 0.178572 
0.178573 0.178573 0.178573 0.178573 0.178573 0.178573 0.178573 0.178573 0.178573 
0.178573 0.178573 0.178573 0.178573 0.178573 0.178573 0.178573 0.178573 0.178573 
0.178573 0.178573 0.178573 0.178573 0.178573 0.178573 0.178571 0.178573 0.17857 
0.178573 0.178573 0.178573 0.178573 0.178573 0.178573 0.178573 0.178573 0.178573 
0.178573 0.178573 0.178573 0.178573 0.178573 0.178573 0.178573 0.178573 0.178573 
0.178573 0.178573 0.178573 0.178573 0.178573 0.178573 0.178573 0.178573 0.178573 
0.178573 0.17857 0.178573 0.178573 0.178573 0.178573 0.178573 0.178573 0.178573 
0.178573 0.178573 0.178573 0.178573 0.178573 0.178573 0.178573 0.178573 0.178573 
0.178573 0.178573 0.178573 0.178573 0.178573 0.178573 0.178573 0.178573 0.178573 
0.178573 0.178573 0.178573 0.178574 0.178573 0.178573 0.178573 0.178573 0.178573 
0.178573 0.178573 0.178573 0.178573 0.178573 0.178573 0.178573 0.178573 0.178573 
0.178573 0.178573 0.178573 0.178573 0.178573 0.178573 0.178573 0.178573 0.178573 
0.178573 0.178573 0.178573 0.178573 0.178573 0.178573 0.178573 0.178573 0.178573 
0.178573 0.178573 0.178573 0.178573 0.178573 0.178573 0.178573 0.178573 0.178573 
0.178573 0.178573 0.178573 0.178573 0.178573 0.178573 0.178573 0.178573 0.178573 
0.178573 0.178573 0.178573 0.178573 0.178573 0.178573 0.178573 0.178573 0.178573 
0.178573 0.178573 0.178573 0.178573 0.178573 0.178573 0.178573 0.178573 0.178573 
0.178573 0.178573 0.178573 0.178573 0.178573 0.178573 0.178573 0.178573 0.178573 
0.178573 0.178573 0.178573 0.178573 0.178573 0.178573 0.178573 0.178573 0.178573 
0.178573 0.178573 0.178573 0.178573 0.178573 0.178573 0.178573 0.178573 0.178573 
0.178573 0.178573 0.178573 0.178573 0.178573 0.178573 0.178573 0.178573 0.178573 
0.178573 0.178573 0.178573 0.178573 0.178573 0.178573 0.178573 0.178573 0.178573 
0.178573 0.178573 0.178573 0.178573 0.178573 0.178573 0.178573 0.178573 0.178573 
0.178573 0.178573 0.178573 0.178573 0.178573 0.178573 0.178573 0.178573 0.178573 
0.178573 0.178573 0.178573 0.178573 0.178573 0.178573 0.178573 0.178573 0.178573 
0.178573 0.178573 0.178573 0.178573 0.178573 0.178573 0.178573 0.178573 0.178573 
0.178573 0.178573 0.178573 0.178573 0.178573 0.178573 0.178573 0.178573 0.178573 
0.178573 0.178573 0.178573 0.178573 0.178573 0.178573 0.178573 0.178573 0.178573 
0.178573 0.178573 0.178573 0.178573 0.178573 0.178573 0.178573 0.178573 0.178573 
0.178573 0.178573 0.178573 0.178573 0.178573 0.178573 0.178573 0.178573 0.178573 
0.178573 0.178573 0.178573 0.178573 0.178573 0.178573 0.178573 0.178573 0.178573 
0.178573 0.178573 0.178573 0.178573 0.178573 0.178573 0.178573 0.178573 0.178573 
0.178573 0.178573 0.178573 0.178573 0.178573 0.178573 0.178573 0.178573 0.178573 
0.178573 0.178573 0.178573 0.178573 0.178573 0.178573 0.178573 0.178573 0.178573 
0.178573 0.178573 0.178573 0.178573 0.178573 0.178573 0.178573 0.178573 0.178573 
0.178573 0.178573 0.178573 0.178573 0.178573 0.178573 0.178573 0.178573 0.178573 
0.178573 0.178573 0.178573 0.178573 0.178573 0.178573 0.178573 0.178573 0.178573 
0.178573 0.178573 0.178573 0.178573 0.178573 0.178573 0.178573 0.178573 0.178573 
0.178573 0.178573 0.178573 0.178573 0.178573 0.178573 0.178573 0.178573 0.178573 
0.178573 0.178573 0.178573 0.178573 0.178573 0.178573 0.178573 0.178573 0.178573 
0.178573 0.178573 0.178573 0.178573 0.178573 0.178573 0.178573 0.178573 0.178573 
0.178573 0.178573 0.178573 0.178573 0.178573 0.178573 0.178573 0.178573 0.178573 
0.178573 0.178573 0.178573 0.178573 0.178573 0.178573 0.178573 0.178573 0.178573 
0.178573 0.178573 0.178573 0.178573 0.178573 0.178573 0.178573 0.178573 0.178573 
0.178573 0.178573 0.178573 0.178573 0.178573 0.178573 0.178573 0.178573 0.178573 
0.178573 0.178573 0.178573 0.178573 0.178573 0.178573 0.178573 0.178573 0.178573 
0.178573 0.178573 0.178573 0.178573 0.178573 0.178573 0.178573 0.178573 0.178573 
0.178573 0.178573 0.178573 0.178573 0.178573 0.178573 0.178573 0.178573 0.178573 
0.178573 0.178573 0.178573 0.178573 0.178573 0.178573 0.178573 0.178573 0.178573 
0.178573 0.178573 0.178573 0.178573 0.178573 0.178573 0.178573 0.178573 0.178573 
0.178573 0.178573 0.178573 0.178573 0.178573 0.178573 0.178573 0.178573 0.178573 
0.178573 0.178573 0.178573 0.178573 0.178573 0.178573 0.178573 0.178573 0.178573 
0.178573 0.178573 0.178573 0.178573 0.178573 0.178573 0.178573 0.178573 0.178573 
0.178573 0.178573 0.178573 0.178573 0.178573 0.178573 0.178573 0.178573 0.178573 
0.178573 0.178573 0.178573 0.178573 0.178573 0.178573 0.178573 0.178573 0.178573 
0.178573 0.178573 0.178573 0.178573 0.178573 0.178573 0.178573 0.178573 0.178573 
0.178573 0.178573 0.178573 0.178573 0.178573 0.178573 0.178573 0.178573 0.178573 
0.178573 0.178573 0.178573 0.178573 0.178573 0.178573 0.178573 0.178573 0.178573 
0.178573 0.178573 0.178573 0.178573 0.178573 0.178573 0.178573 0.178573 0.178573 
0.178573 0.178573 0.178573 0.178573 0.178573 0.178573 0.178573 0.178573 0.178573 
0.178573 0.178573 0.178573 0.178573 0.178573 0.178573 0.178573 0.178573 0.178573 
0.178573 0.178573 0.178573 0.178573 0.178573 0.178573 0.178573 0.178573 0.178573 
0.178573 0.178573 0.178573 0.178573 0.178573 0.178573 0.178573 0.178573 0.178573 
0.178573 0.178573 0.178573 0.178573 0.178573 0.178573 0.178573 0.178573 0.178573 
0.178573 0.178573 0.178573 0.178573 0.178573 0.178573 0.178573 0.178573 0.178573 
0.178573 0.178573 0.178573 0.178573 0.178573 0.178573 0.178573 0.178573 0.178573 
0.178573 0.178573 0.178573 0.178573 0.178573 0.178573 0.178573 0.178573 0.178573 
0.178573 0.178573 0.178573 0.178573 0.178573 0.178573 0.178573 0.178573 0.178573 
0.178573 0.178573 0.178573 0.178573 0.178573 0.178573 0.178573 0.178573 0.178573 
0.178573 0.178573 0.178573 0.178573 0.178573 0.178573 0.178573 0.178573 0.178573 
0.178573 0.178573 0.178573 0.178573 0.178573 0.178573 0.178573 0.178573 0.178573 
0.178573 0.178573 0.178573 0.178573 0.178573 0.178573 0.178573 0.178573 0.178573 
0.178573 0.178573 0.178573 0.178573 0.178573 0.178573 0.250506 0.178543 0.178581 
0.17857 0.178574 0.178571 0.178573 0.178573 0.178573 0.178573 0.178573 0.178573 
0.178573 0.178573 0.178573 0.178573 0.178573 0.178573 0.178573 0.178573 0.178573 
0.178573 0.178573 0.178573 0.178573 0.178573 0.178573 0.178573 0.178573 0.178573 
0.192447 0.178606 0.178558 0.178573 0.178571 0.178573 0.178573 0.178573 0.178573 
0.178573 0.178573 0.178573 0.178573 0.178573 0.178573 0.178573 0.178573 0.178573 
0.178573 0.178573 0.178573 0.178573 0.178573 0.178573 0.178573 0.178573 0.178573 
0.178573 0.178573 0.178573 0.179247 0.178554 0.178572 0.178575 0.178568 0.178573 
0.178572 0.178573 0.178573 0.178573 0.178573 0.178573 0.178573 0.178573 0.178573 
0.178573 0.178573 0.178573 0.178573 0.178573 0.178573 0.178573 0.178573 0.178573 
0.178573 0.178573 0.178573 0.178573 0.178573 0.178573 0.178594 0.178559 0.178575 
0.178566 0.178573 0.178572 0.178573 0.178573 0.178573 0.178573 0.178573 0.178573 
0.178573 0.178573 0.178573 0.178573 0.178573 0.178573 0.178573 0.178573 0.178573 
0.178573 0.178573 0.178573 0.178573 0.178573 0.178573 0.178573 0.178573 0.178573 
0.178568 0.178573 0.17857 0.178572 0.178573 0.178573 0.178573 0.178573 0.178573 
0.178573 0.178573 0.178573 0.178573 0.178573 0.178573 0.178573 0.178573 0.178573 
0.178573 0.178573 0.178573 0.178573 0.178573 0.178573 0.178573 0.178573 0.178573 
0.178573 0.178573 0.178573 0.178573 0.17857 0.178573 0.178573 0.178573 0.178573 
0.178573 0.178573 0.178573 0.178573 0.178573 0.178573 0.178573 0.178573 0.178573 
0.178573 0.178573 0.178573 0.178573 0.178573 0.178573 0.178573 0.178573 0.178573 
0.178573 0.178573 0.178573 0.178573 0.178573 0.178573 0.178575 0.178572 0.178573 
0.178573 0.178573 0.178573 0.178573 0.178573 0.178573 0.178573 0.178573 0.178573 
0.178573 0.178573 0.178573 0.178573 0.178573 0.178573 0.178573 0.178573 0.178573 
0.178573 0.178573 0.178573 0.178573 0.178573 0.178573 0.178573 0.178573 0.178573 
0.178572 0.178573 0.178573 0.178573 0.178573 0.178573 0.178573 0.178573 0.178573 
0.178573 0.178573 0.178573 0.178573 0.178573 0.178573 0.178573 0.178573 0.178573 
0.178573 0.178573 0.178573 0.178573 0.178573 0.178573 0.178573 0.178573 0.178573 
0.178573 0.178573 0.178573 0.178573 0.178573 0.178573 0.178573 0.178573 0.178573 
0.178573 0.178573 0.178573 0.178573 0.178573 0.178573 0.178573 0.178573 0.178573 
0.178573 0.178573 0.178573 0.178573 0.178573 0.178573 0.178573 0.178573 0.178573 
0.178573 0.178573 0.178573 0.178573 0.178573 0.178573 0.178573 0.178573 0.178573 
0.178573 0.178573 0.178573 0.178573 0.178573 0.178573 0.178573 0.178573 0.178573 
0.178573 0.178573 0.178573 0.178573 0.178573 0.178573 0.178573 0.178573 0.178573 
0.178573 0.178573 0.178573 0.178573 0.178573 0.178573 0.178573 0.178573 0.178573 
0.178573 0.178573 0.178573 0.178573 0.178573 0.178573 0.178573 0.178573 0.178573 
0.178573 0.178573 0.178573 0.178573 0.178573 0.178573 0.178573 0.178573 0.178573 
0.178573 0.178573 0.178573 0.178573 0.178573 0.178573 0.178573 0.178573 0.178573 
0.178573 0.178573 0.178573 0.178573 0.178573 0.178573 0.178573 0.178573 0.178573 
0.178573 0.178573 0.178573 0.178573 0.178573 0.178573 0.178573 0.178573 0.178573 
0.178573 0.178573 0.178573 0.178573 0.178573 0.178573 0.178573 0.178573 0.178573 
0.178573 0.178573 0.178573 0.178573 0.178573 0.178573 0.178573 0.178573 0.178573 
0.178573 0.178573 0.178573 0.178573 0.178573 0.178573 0.178573 0.178573 0.178573 
0.178573 0.178573 0.178573 0.178573 0.178573 0.178573 0.178573 0.178573 0.178573 
0.178573 0.178573 0.178573 0.178573 0.178573 0.178573 0.178573 0.178573 0.178573 
0.178573 0.178573 0.178573 0.178573 0.178573 0.178573 0.178573 0.178573 0.178573 
0.178573 0.178573 0.178573 0.178573 0.178573 0.178573 0.178573 0.178573 0.178573 
0.178573 0.178573 0.178573 0.178573 0.178573 0.178573 0.178573 0.178573 0.178573 
0.178573 0.178573 0.178573 0.178573 0.178573 0.178573 0.178573 0.178573 0.178573 
0.178573 0.178573 0.178573 0.178573 0.178573 0.178573 0.178573 0.178573 0.178573 
0.178573 0.178573 0.178573 0.178573 0.178573 0.178573 0.178573 0.178573 0.178573 
0.178573 0.178573 0.178573 0.178573 0.178573 0.178573 0.178573 0.178573 0.178573 
0.178573 0.178573 0.178573 0.178573 0.178573 0.178573 0.178573 0.178573 0.178573 
0.178573 0.178573 0.178573 0.178573 0.178573 0.178573 0.178573 0.178573 0.178573 
0.178573 0.178573 0.178573 0.178573 0.178573 0.178573 0.178573 0.178573 0.178573 
0.178573 0.178573 0.178573 0.178573 0.178573 0.178573 0.178573 0.178573 0.178573 
0.178573 0.178573 0.178573 0.178573 0.178573 0.178573 0.178573 0.178573 0.178573 
0.178573 0.178573 0.178573 0.178573 0.178573 0.178573 0.178573 0.178573 0.178573 
0.178573 0.178573 0.178573 0.178573 0.178573 0.178573 0.178573 0.178573 0.178573 
0.178573 0.178573 0.178573 0.178573 0.178573 0.178573 0.178573 0.178573 0.178573 
0.178573 0.178573 0.178573 0.178573 0.178573 0.178573 0.178573 0.178573 0.178573 
0.178573 0.178573 0.178573 0.178573 0.178573 0.178573 0.178573 0.178573 0.178573 
0.178573 0.178573 0.178573 0.178573 0.178573 0.178573 0.178573 0.178573 0.178573 
0.178573 0.178573 0.178573 0.178573 0.178573 0.178573 0.178573 0.178573 0.178573 
0.178573 0.178573 0.178573 0.178573 0.178573 0.178573 0.178573 0.178573 0.178573 
0.178573 0.178573 0.178573 0.178573 0.178573 0.178573 0.178573 0.178573 0.178573 
0.178573 0.178573 0.178573 0.178573 0.178573 0.178573 0.178573 0.178573 0.178573 
0.178573 0.178573 0.178573 0.178573 0.178573 0.178573 0.178573 0.178573 0.178573 
0.178573 0.178573 0.178573 0.178573 0.178573 0.178573 0.178573 0.178573 0.178573 
0.178573 0.178573 0.178573 0.178573 0.178573 0.178573 0.178573 0.178573 0.178573 
0.178573 0.178573 0.178573 0.178573 0.178573 0.178573 0.178573 0.178573 0.178573 
0.178573 0.178573 0.178573 0.178573 0.178573 0.178573 0.178573 0.178573 0.178573 
0.178573 0.178573 0.178573 0.178573 0.178573 0.178573 0.178573 0.178573 0.178573 
0.178573 0.178573 0.178573 0.178573 0.178573 0.178573 0.178573 0.178573 0.178573 
0.178573 0.178573 0.178573 0.178573 0.178573 0.178573 0.178573 0.178573 0.178573 
0.178573 0.178573 0.178573 0.178573 0.178573 0.178573 0.178573 0.178573 0.178573 
0.178573 0.178573 0.178573 0.178573 0.178573 0.178573 0.178573 0.178573 0.178573 
0.178573 0.178573 0.178573 0.178573 0.178573 0.178573 0.178573 0.178573 0.178573 