# vtk DataFile Version 5.1
vtk output
ASCII
DATASET STRUCTURED_GRID
DIMENSIONS 30 12 55
POINTS 19800 float
0 0.5 0.5 -0.003 0.5 0.5 -0.00604287 0.5 0.5 
-0.0091721 0.5 0.5 -0.0124324 0.5 0.5 -0.0158704 0.5 0.5 
-0.0195351 0.5 0.5 -0.0234791 0.5 0.5 -0.0277585 0.5 0.5 
-0.0324346 0.5 0.5 -0.0375743 0.5 0.5 -0.0432509 0.5 0.5 
-0.0495456 0.5 0.5 -0.0565483 0.5 0.5 -0.0643591 0.5 0.5 
-0.0730896 0.5 0.5 -0.0828646 0.5 0.5 -0.0938238 0.5 0.5 
-0.106124 0.5 0.5 -0.11994 0.5 0.5 -0.135471 0.5 0.5 
-0.152937 0.5 0.5 -0.172589 0.5 0.5 -0.194708 0.5 0.5 
-0.219609 0.5 0.5 -0.247648 0.5 0.5 -0.279226 0.5 0.5 
-0.314795 0.5 0.5 -0.354862 0.5 0.5 -0.4 0.5 0.5 
0 0.54 0.5 -0.003 0.54 0.5 -0.00604287 0.54 0.5 
-0.0091721 0.54 0.5 -0.0124324 0.54 0.5 -0.0158704 0.54 0.5 
-0.0195351 0.54 0.5 -0.0234791 0.54 0.5 -0.0277585 0.54 0.5 
-0.0324346 0.54 0.5 -0.0375743 0.54 0.5 -0.0432509 0.54 0.5 
-0.0495456 0.54 0.5 -0.0565483 0.54 0.5 -0.0643591 0.54 0.5 
-0.0730896 0.54 0.5 -0.0828646 0.54 0.5 -0.0938238 0.54 0.5 
-0.106124 0.54 0.5 -0.11994 0.54 0.5 -0.135471 0.54 0.5 
-0.152937 0.54 0.5 -0.172589 0.54 0.5 -0.194708 0.54 0.5 
-0.219609 0.54 0.5 -0.247648 0.54 0.5 -0.279226 0.54 0.5 
-0.314795 0.54 0.5 -0.354862 0.54 0.5 -0.4 0.54 0.5 
0 0.581231 0.5 -0.003 0.581231 0.5 -0.00604287 0.581231 0.5 
-0.0091721 0.581231 0.5 -0.0124324 0.581231 0.5 -0.0158704 0.581231 0.5 
-0.0195351 0.581231 0.5 -0.0234791 0.581231 0.5 -0.0277585 0.581231 0.5 
-0.0324346 0.581231 0.5 -0.0375743 0.581231 0.5 -0.0432509 0.581231 0.5 
-0.0495456 0.581231 0.5 -0.0565483 0.581231 0.5 -0.0643591 0.581231 0.5 
-0.0730896 0.581231 0.5 -0.0828646 0.581231 0.5 -0.0938238 0.581231 0.5 
-0.106124 0.581231 0.5 -0.11994 0.581231 0.5 -0.135471 0.581231 0.5 
-0.152937 0.581231 0.5 -0.172589 0.581231 0.5 -0.194708 0.581231 0.5 
-0.219609 0.581231 0.5 -0.247648 0.581231 0.5 -0.279226 0.581231 0.5 
-0.314795 0.581231 0.5 -0.354862 0.581231 0.5 -0.4 0.581231 0.5 
0 0.62366 0.5 -0.003 0.62366 0.5 -0.00604287 0.62366 0.5 
-0.0091721 0.62366 0.5 -0.0124324 0.62366 0.5 -0.0158704 0.62366 0.5 
-0.0195351 0.62366 0.5 -0.0234791 0.62366 0.5 -0.0277585 0.62366 0.5 
-0.0324346 0.62366 0.5 -0.0375743 0.62366 0.5 -0.0432509 0.62366 0.5 
-0.0495456 0.62366 0.5 -0.0565483 0.62366 0.5 -0.0643591 0.62366 0.5 
-0.0730896 0.62366 0.5 -0.0828646 0.62366 0.5 -0.0938238 0.62366 0.5 
-0.106124 0.62366 0.5 -0.11994 0.62366 0.5 -0.135471 0.62366 0.5 
-0.152937 0.62366 0.5 -0.172589 0.62366 0.5 -0.194708 0.62366 0.5 
-0.219609 0.62366 0.5 -0.247648 0.62366 0.5 -0.279226 0.62366 0.5 
-0.314795 0.62366 0.5 -0.354862 0.62366 0.5 -0.4 0.62366 0.5 
0 0.667248 0.5 -0.003 0.667248 0.5 -0.00604287 0.667248 0.5 
-0.0091721 0.667248 0.5 -0.0124324 0.667248 0.5 -0.0158704 0.667248 0.5 
-0.0195351 0.667248 0.5 -0.0234791 0.667248 0.5 -0.0277585 0.667248 0.5 
-0.0324346 0.667248 0.5 -0.0375743 0.667248 0.5 -0.0432509 0.667248 0.5 
-0.0495456 0.667248 0.5 -0.0565483 0.667248 0.5 -0.0643591 0.667248 0.5 
-0.0730896 0.667248 0.5 -0.0828646 0.667248 0.5 -0.0938238 0.667248 0.5 
-0.106124 0.667248 0.5 -0.11994 0.667248 0.5 -0.135471 0.667248 0.5 
-0.152937 0.667248 0.5 -0.172589 0.667248 0.5 -0.194708 0.667248 0.5 
-0.219609 0.667248 0.5 -0.247648 0.667248 0.5 -0.279226 0.667248 0.5 
-0.314795 0.667248 0.5 -0.354862 0.667248 0.5 -0.4 0.667248 0.5 
0 0.711948 0.5 -0.003 0.711948 0.5 -0.00604287 0.711948 0.5 
-0.0091721 0.711948 0.5 -0.0124324 0.711948 0.5 -0.0158704 0.711948 0.5 
-0.0195351 0.711948 0.5 -0.0234791 0.711948 0.5 -0.0277585 0.711948 0.5 
-0.0324346 0.711948 0.5 -0.0375743 0.711948 0.5 -0.0432509 0.711948 0.5 
-0.0495456 0.711948 0.5 -0.0565483 0.711948 0.5 -0.0643591 0.711948 0.5 
-0.0730896 0.711948 0.5 -0.0828646 0.711948 0.5 -0.0938238 0.711948 0.5 
-0.106124 0.711948 0.5 -0.11994 0.711948 0.5 -0.135471 0.711948 0.5 
-0.152937 0.711948 0.5 -0.172589 0.711948 0.5 -0.194708 0.711948 0.5 
-0.219609 0.711948 0.5 -0.247648 0.711948 0.5 -0.279226 0.711948 0.5 
-0.314795 0.711948 0.5 -0.354862 0.711948 0.5 -0.4 0.711948 0.5 
0 0.757707 0.5 -0.003 0.757707 0.5 -0.00604287 0.757707 0.5 
-0.0091721 0.757707 0.5 -0.0124324 0.757707 0.5 -0.0158704 0.757707 0.5 
-0.0195351 0.757707 0.5 -0.0234791 0.757707 0.5 -0.0277585 0.757707 0.5 
-0.0324346 0.757707 0.5 -0.0375743 0.757707 0.5 -0.0432509 0.757707 0.5 
-0.0495456 0.757707 0.5 -0.0565483 0.757707 0.5 -0.0643591 0.757707 0.5 
-0.0730896 0.757707 0.5 -0.0828646 0.757707 0.5 -0.0938238 0.757707 0.5 
-0.106124 0.757707 0.5 -0.11994 0.757707 0.5 -0.135471 0.757707 0.5 
-0.152937 0.757707 0.5 -0.172589 0.757707 0.5 -0.194708 0.757707 0.5 
-0.219609 0.757707 0.5 -0.247648 0.757707 0.5 -0.279226 0.757707 0.5 
-0.314795 0.757707 0.5 -0.354862 0.757707 0.5 -0.4 0.757707 0.5 
0 0.804462 0.5 -0.003 0.804462 0.5 -0.00604287 0.804462 0.5 
-0.0091721 0.804462 0.5 -0.0124324 0.804462 0.5 -0.0158704 0.804462 0.5 
-0.0195351 0.804462 0.5 -0.0234791 0.804462 0.5 -0.0277585 0.804462 0.5 
-0.0324346 0.804462 0.5 -0.0375743 0.804462 0.5 -0.0432509 0.804462 0.5 
-0.0495456 0.804462 0.5 -0.0565483 0.804462 0.5 -0.0643591 0.804462 0.5 
-0.0730896 0.804462 0.5 -0.0828646 0.804462 0.5 -0.0938238 0.804462 0.5 
-0.106124 0.804462 0.5 -0.11994 0.804462 0.5 -0.135471 0.804462 0.5 
-0.152937 0.804462 0.5 -0.172589 0.804462 0.5 -0.194708 0.804462 0.5 
-0.219609 0.804462 0.5 -0.247648 0.804462 0.5 -0.279226 0.804462 0.5 
-0.314795 0.804462 0.5 -0.354862 0.804462 0.5 -0.4 0.804462 0.5 
0 0.852147 0.5 -0.003 0.852147 0.5 -0.00604287 0.852147 0.5 
-0.0091721 0.852147 0.5 -0.0124324 0.852147 0.5 -0.0158704 0.852147 0.5 
-0.0195351 0.852147 0.5 -0.0234791 0.852147 0.5 -0.0277585 0.852147 0.5 
-0.0324346 0.852147 0.5 -0.0375743 0.852147 0.5 -0.0432509 0.852147 0.5 
-0.0495456 0.852147 0.5 -0.0565483 0.852147 0.5 -0.0643591 0.852147 0.5 
-0.0730896 0.852147 0.5 -0.0828646 0.852147 0.5 -0.0938238 0.852147 0.5 
-0.106124 0.852147 0.5 -0.11994 0.852147 0.5 -0.135471 0.852147 0.5 
-0.152937 0.852147 0.5 -0.172589 0.852147 0.5 -0.194708 0.852147 0.5 
-0.219609 0.852147 0.5 -0.247648 0.852147 0.5 -0.279226 0.852147 0.5 
-0.314795 0.852147 0.5 -0.354862 0.852147 0.5 -0.4 0.852147 0.5 
0 0.900687 0.5 -0.003 0.900687 0.5 -0.00604287 0.900687 0.5 
-0.0091721 0.900687 0.5 -0.0124324 0.900687 0.5 -0.0158704 0.900687 0.5 
-0.0195351 0.900687 0.5 -0.0234791 0.900687 0.5 -0.0277585 0.900687 0.5 
-0.0324346 0.900687 0.5 -0.0375743 0.900687 0.5 -0.0432509 0.900687 0.5 
-0.0495456 0.900687 0.5 -0.0565483 0.900687 0.5 -0.0643591 0.900687 0.5 
-0.0730896 0.900687 0.5 -0.0828646 0.900687 0.5 -0.0938238 0.900687 0.5 
-0.106124 0.900687 0.5 -0.11994 0.900687 0.5 -0.135471 0.900687 0.5 
-0.152937 0.900687 0.5 -0.172589 0.900687 0.5 -0.194708 0.900687 0.5 
-0.219609 0.900687 0.5 -0.247648 0.900687 0.5 -0.279226 0.900687 0.5 
-0.314795 0.900687 0.5 -0.354862 0.900687 0.5 -0.4 0.900687 0.5 
0 0.95 0.5 -0.003 0.95 0.5 -0.00604287 0.95 0.5 
-0.0091721 0.95 0.5 -0.0124324 0.95 0.5 -0.0158704 0.95 0.5 
-0.0195351 0.95 0.5 -0.0234791 0.95 0.5 -0.0277585 0.95 0.5 
-0.0324346 0.95 0.5 -0.0375743 0.95 0.5 -0.0432509 0.95 0.5 
-0.0495456 0.95 0.5 -0.0565483 0.95 0.5 -0.0643591 0.95 0.5 
-0.0730896 0.95 0.5 -0.0828646 0.95 0.5 -0.0938238 0.95 0.5 
-0.106124 0.95 0.5 -0.11994 0.95 0.5 -0.135471 0.95 0.5 
-0.152937 0.95 0.5 -0.172589 0.95 0.5 -0.194708 0.95 0.5 
-0.219609 0.95 0.5 -0.247648 0.95 0.5 -0.279226 0.95 0.5 
-0.314795 0.95 0.5 -0.354862 0.95 0.5 -0.4 0.95 0.5 
0 1 0.5 -0.003 1 0.5 -0.00604287 1 0.5 
-0.0091721 1 0.5 -0.0124324 1 0.5 -0.0158704 1 0.5 
-0.0195351 1 0.5 -0.0234791 1 0.5 -0.0277585 1 0.5 
-0.0324346 1 0.5 -0.0375743 1 0.5 -0.0432509 1 0.5 
-0.0495456 1 0.5 -0.0565483 1 0.5 -0.0643591 1 0.5 
-0.0730896 1 0.5 -0.0828646 1 0.5 -0.0938238 1 0.5 
-0.106124 1 0.5 -0.11994 1 0.5 -0.135471 1 0.5 
-0.152937 1 0.5 -0.172589 1 0.5 -0.194708 1 0.5 
-0.219609 1 0.5 -0.247648 1 0.5 -0.279226 1 0.5 
-0.314795 1 0.5 -0.354862 1 0.5 -0.4 1 0.5 
0 0.5 0.497 -0.003 0.5 0.497 -0.00604287 0.5 0.497 
-0.0091721 0.5 0.497 -0.0124324 0.5 0.497 -0.0158704 0.5 0.497 
-0.0195351 0.5 0.497 -0.0234791 0.5 0.497 -0.0277585 0.5 0.497 
-0.0324346 0.5 0.497 -0.0375743 0.5 0.497 -0.0432509 0.5 0.497 
-0.0495456 0.5 0.497 -0.0565483 0.5 0.497 -0.0643591 0.5 0.497 
-0.0730896 0.5 0.497 -0.0828646 0.5 0.497 -0.0938238 0.5 0.497 
-0.106124 0.5 0.497 -0.11994 0.5 0.497 -0.135471 0.5 0.497 
-0.152937 0.5 0.497 -0.172589 0.5 0.497 -0.194708 0.5 0.497 
-0.219609 0.5 0.497 -0.247648 0.5 0.497 -0.279226 0.5 0.497 
-0.314795 0.5 0.497 -0.354862 0.5 0.497 -0.4 0.5 0.497 
0 0.54 0.497 -0.003 0.54 0.497 -0.00604287 0.54 0.497 
-0.0091721 0.54 0.497 -0.0124324 0.54 0.497 -0.0158704 0.54 0.497 
-0.0195351 0.54 0.497 -0.0234791 0.54 0.497 -0.0277585 0.54 0.497 
-0.0324346 0.54 0.497 -0.0375743 0.54 0.497 -0.0432509 0.54 0.497 
-0.0495456 0.54 0.497 -0.0565483 0.54 0.497 -0.0643591 0.54 0.497 
-0.0730896 0.54 0.497 -0.0828646 0.54 0.497 -0.0938238 0.54 0.497 
-0.106124 0.54 0.497 -0.11994 0.54 0.497 -0.135471 0.54 0.497 
-0.152937 0.54 0.497 -0.172589 0.54 0.497 -0.194708 0.54 0.497 
-0.219609 0.54 0.497 -0.247648 0.54 0.497 -0.279226 0.54 0.497 
-0.314795 0.54 0.497 -0.354862 0.54 0.497 -0.4 0.54 0.497 
0 0.581231 0.497 -0.003 0.581231 0.497 -0.00604287 0.581231 0.497 
-0.0091721 0.581231 0.497 -0.0124324 0.581231 0.497 -0.0158704 0.581231 0.497 
-0.0195351 0.581231 0.497 -0.0234791 0.581231 0.497 -0.0277585 0.581231 0.497 
-0.0324346 0.581231 0.497 -0.0375743 0.581231 0.497 -0.0432509 0.581231 0.497 
-0.0495456 0.581231 0.497 -0.0565483 0.581231 0.497 -0.0643591 0.581231 0.497 
-0.0730896 0.581231 0.497 -0.0828646 0.581231 0.497 -0.0938238 0.581231 0.497 
-0.106124 0.581231 0.497 -0.11994 0.581231 0.497 -0.135471 0.581231 0.497 
-0.152937 0.581231 0.497 -0.172589 0.581231 0.497 -0.194708 0.581231 0.497 
-0.219609 0.581231 0.497 -0.247648 0.581231 0.497 -0.279226 0.581231 0.497 
-0.314795 0.581231 0.497 -0.354862 0.581231 0.497 -0.4 0.581231 0.497 
0 0.62366 0.497 -0.003 0.62366 0.497 -0.00604287 0.62366 0.497 
[...]
POINT_DATA 19800
FIELD FieldData 5
pressure 1 19800 float
0.178573 0.178573 0.178573 0.178573 0.178573 0.178573 0.178573 0.178573 0.178573 
0.178573 0.178573 0.178573 0.178573 0.178573 0.178573 0.178573 0.178573 0.178573 
0.178573 0.178573 0.178573 0.178573 0.178573 0.178573 0.178573 0.178573 0.178573 
0.178573 0.178573 0.178573 0.178573 0.178573 0.178573 0.178573 0.178573 0.178573 
0.178573 0.178573 0.178573 0.178573 0.178573 0.178573 0.178573 0.178573 0.178573 
0.178573 0.178573 0.178573 0.178573 0.178573 0.178573 0.178573 0.178573 0.178573 
0.178573 0.178573 0.178573 0.178573 0.178573 0.178573 0.178573 0.178573 0.178573 
0.178573 0.178573 0.178573 0.178573 0.178573 0.178573 0.178573 0.178573 0.178573 
0.178573 0.178573 0.178573 0.178573 0.178573 0.178573 0.178573 0.178573 0.178573 
0.178573 0.178573 0.178573 0.178573 0.178573 0.178573 0.178573 0.178573 0.178573 
0.178573 0.178573 0.178573 0.178573 0.178573 0.178573 0.178573 0.178573 0.178573 
0.178573 0.178573 0.178573 0.178573 0.178573 0.178573 0.178573 0.178573 0.178573 
0.178573 0.178573 0.178573 0.178573 0.178573 0.178573 0.178573 0.178573 0.178573 
0.178573 0.178573 0.178573 0.178573 0.178573 0.178573 0.178573 0.178573 0.178573 
0.178573 0.178573 0.178573 0.178573 0.178573 0.178573 0.178573 0.178573 0.178573 
0.178573 0.178573 0.178573 0.178573 0.178573 0.178573 0.178573 0.178573 0.178573 
0.178573 0.178573 0.178573 0.178573 0.178573 0.178573 0.178573 0.178573 0.178573 
0.178573 0.178573 0.178573 0.178573 0.178573 0.178573 0.178573 0.178573 0.178573 
0.178573 0.178573 0.178573 0.178573 0.178573 0.178573 0.178573 0.178573 0.178573 
0.178573 0.178573 0.178573 0.178573 0.178573 0.178573 0.178573 0.178573 0.178573 
0.178573 0.178573 0.178573 0.178573 0.178573 0.178573 0.178573 0.178573 0.178573 
0.178573 0.178573 0.178573 0.178573 0.178573 0.178573 0.178573 0.178573 0.178573 
0.178573 0.178573 0.178573 0.178573 0.178573 0.178573 0.178573 0.178573 0.178573 
0.178573 0.178573 0.178573 0.178573 0.178573 0.178573 0.178573 0.178573 0.178573 
0.178573 0.178573 0.178573 0.178573 0.178573 0.178573 0.178573 0.178573 0.178573 
0.178573 0.178573 0.178573 0.178573 0.178573 0.178573 0.178573 0.178573 0.178573 
0.178573 0.178573 0.178573 0.178573 0.178573 0.178573 0.178573 0.178573 0.178573 
0.178573 0.178573 0.178573 0.178573 0.178573 0.178573 0.178573 0.178573 0.178573 
0.178573 0.178573 0.178573 0.178573 0.178573 0.178573 0.178573 0.178573 0.178573 
0.178573 0.178573 0.178573 0.178573 0.178573 0.178573 0.178573 0.178573 0.178573 
0.178573 0.178573 0.178573 0.178573 0.178573 0.178573 0.178573 0.178573 0.178573 
0.178573 0.178573 0.178573 0.178573 0.178573 0.178573 0.178573 0.178573 0.178573 
0.178573 0.178573 0.178573 0.178573 0.178573 0.178573 0.178573 0.178573 0.178573 
0.178573 0.178573 0.178573 0.178573 0.178573 0.178573 0.178573 0.178573 0.178573 
0.178573 0.178573 0.178573 0.178573 0.178573 0.178573 0.178573 0.178573 0.178573 
0.178573 0.178573 0.178573 0.178573 0.178573 0.178573 0.178573 0.178573 0.178573 
0.178573 0.178573 0.178573 0.178573 0.178573 0.178573 0.178573 0.178573 0.178573 
0.178573 0.178573 0.178573 0.178573 0.178573 0.178573 0.178573 0.178573 0.178573 
0.178573 0.178573 0.178573 0.178573 0.178573 0.178573 0.178573 0.178573 0.178573 
0.178573 0.178573 0.178573 0.178573 0.178573 0.178573 0.178573 0.178573 0.178573 
0.178573 0.178573 0.178573 0.178573 0.178573 0.178573 0.178573 0.178573 0.178573 
0.178573 0.178573 0.178573 0.178573 0.178573 0.178573 0.178573 0.178573 0.178573 
0.178573 0.178573 0.178573 0.178573 0.178573 0.178573 0.178573 0.178573 0.178573 
0.178573 0.178573 0.178573 0.178573 0.178573 0.178573 0.178573 0.178573 0.178573 
0.178573 0.178573 0.178573 0.178573 0.178573 0.178573 0.178573 0.178573 0.178573 
0.178573 0.178573 0.178573 0.178573 0.178573 0.178573 0.178573 0.178573 0.178573 
0.178573 0.178573 0.178573 0.178573 0.178573 0.178573 0.178573 0.178573 0.178573 
0.178573 0.178573 0.178573 0.178573 0.178573 0.178573 0.178573 0.178573 0.178573 
0.178573 0.178573 0.178573 0.178573 0.178573 0.178573 0.178573 0.178573 0.178573 
0.178573 0.178573 0.178573 0.178573 0.178573 0.178573 0.178573 0.178573 0.178573 
0.178573 0.178573 0.178573 0.178573 0.178573 0.178573 0.178573 0.178573 0.178573 
0.178573 0.178573 0.178573 0.178573 0.178573 0.178573 0.178573 0.178573 0.178573 
0.178573 0.178573 0.178573 0.178573 0.178573 0.178573 0.178573 0.178573 0.178573 
0.178573 0.178573 0.178573 0.178573 0.178573 0.178573 0.178573 0.178573 0.178573 
0.178573 0.178573 0.178573 0.178573 0.178573 0.178573 0.178573 0.178573 0.178573 
0.178573 0.178573 0.178573 0.178573 0.178573 0.178573 0.178573 0.178573 0.178573 
0.178573 0.178573 0.178573 0.178573 0.178573 0.178573 0.178573 0.178573 0.178573 
0.178573 0.178573 0.178573 0.178573 0.178573 0.178573 0.178573 0.178573 0.178573 
0.178573 0.178573 0.178573 0.178573 0.178573 0.178573 0.178573 0.178573 0.178573 
0.178573 0.178573 0.178573 0.178573 0.178573 0.178573 0.178573 0.178573 0.178573 
0.178573 0.178573 0.178573 0.178573 0.178573 0.178573 0.178573 0.178573 0.178573 
0.178573 0.178573 0.178573 0.178573 0.178573 0.178573 0.178573 0.178573 0.178573 
0.178573 0.178573 0.178573 0.178573 0.178573 0.178573 0.178573 0.178573 0.178573 
0.178573 0.178573 0.178573 0.178573 0.178573 0.178573 0.178573 0.178573 0.178573 
0.178573 0.178573 0.178573 0.178573 0.178573 0.178573 0.178573 0.178573 0.178573 
0.178573 0.178573 0.178573 0.178573 0.178573 0.178573 0.178573 0.178573 0.178573 
0.178573 0.178573 0.178573 0.178573 0.178573 0.178573 0.178573 0.178573 0.178573 
0.178573 0.178573 0.178573 0.178573 0.178573 0.178573 0.178573 0.178573 0.178573 
0.178573 0.178573 0.178573 0.178573 0.178573 0.178573 0.178573 0.178573 0.178573 
0.178573 0.178573 0.178573 0.178573 0.178573 0.178573 0.178573 0.178573 0.178573 
0.178573 0.178573 0.178573 0.178573 0.178573 0.178573 0.178573 0.178573 0.178573 
0.178573 0.178573 0.178573 0.178573 0.178573 0.178573 0.178573 0.178573 0.178573 
0.178573 0.178573 0.178573 0.178573 0.178573 0.178573 0.178573 0.178573 0.178573 
0.178573 0.178573 0.178573 0.178573 0.178573 0.178573 0.178573 0.178573 0.178573 
0.178573 0.178573 0.178573 0.178573 0.178573 0.178573 0.178573 0.178573 0.178573 
0.178573 0.178573 0.178573 0.178573 0.178573 0.178573 0.178573 0.178573 0.178573 
0.178573 0.178573 0.178573 0.178573 0.178573 0.178573 0.178573 0.178573 0.178573 
0.178573 0.178573 0.178573 0.178573 0.178573 0.178573 0.178573 0.178573 0.178573 
0.178573 0.178573 0.178573 0.178573 0.178573 0.178573 0.178573 0.178573 0.178573 
0.178573 0.178573 0.178573 0.178573 0.178573 0.178573 0.178573 0.178573 0.178573 
0.178573 0.178573 0.178573 0.178573 0.178573 0.178573 0.178573 0.178573 0.178573 
0.178573 0.178573 0.178573 0.178573 0.178573 0.178573 0.178573 0.178573 0.178573 
0.178573 0.178573 0.178573 0.178573 0.178573 0.178573 0.178573 0.178573 0.178573 
0.178573 0.178573 0.178573 0.178573 0.178573 0.178573 0.178573 0.178573 0.178573 
0.178573 0.178573 0.178573 0.178573 0.178573 0.178573 0.178573 0.178573 0.178573 
0.178573 0.178573 0.178573 0.178573 0.178573 0.178573 0.178573 0.178573 0.178573 
0.178573 0.178573 0.178573 0.178573 0.178573 0.178573 0.178573 0.178573 0.178573 
0.178573 0.178573 0.178573 0.178573 0.178573 0.178573 0.178573 0.178573 0.178573 
0.178573 0.178573 0.178573 0.178573 0.178573 0.178573 0.178573 0.178573 0.178573 
0.178573 0.178573 0.178573 0.178573 0.178573 0.178573 0.178573 0.178573 0.178573 
0.178573 0.178573 0.178573 0.178573 0.178573 0.178573 0.178573 0.178573 0.178573 
0.178573 0.178573 0.178573 0.178573 0.178573 0.178573 0.178573 0.178573 0.178573 
0.178573 0.178573 0.178573 0.178573 0.178573 0.178573 0.178573 0.178573 0.178573 
0.178573 0.178573 0.178573 0.178573 0.178573 0.178573 0.178573 0.178573 0.178573 
0.178573 0.178573 0.178573 0.178573 0.178573 0.178573 0.178573 0.178573 0.178573 
0.178573 0.178573 0.178573 0.178573 0.178573 0.178573 0.178573 0.178573 0.178573 
0.178573 0.178573 0.178573 0.178573 0.178573 0.178573 0.178573 0.178573 0.178573 
0.178573 0.178573 0.178573 0.178573 0.178573 0.178573 0.178573 0.178573 0.178573 
0.178573 0.178573 0.178573 0.178573 0.178573 0.178573 0.178573 0.178573 0.178573 
0.178573 0.178573 0.178573 0.178573 0.178573 0.178573 0.178573 0.178573 0.178573 
0.178573 0.178573 0.178573 0.178573 0.178573 0.178573 0.178573 0.178573 0.178573 
0.178573 0.178573 0.178573 0.178573 0.178573 0.178573 0.178573 0.178573 0.178573 
0.178573 0.178573 0.178573 0.178573 0.178573 0.178573 0.178573 0.178573 0.178573 
0.178573 0.178573 0.178573 0.178573 0.178573 0.178573 0.178573 0.178573 0.178573 
0.178573 0.178573 0.178573 0.178573 0.178573 0.178573 0.178573 0.178573 0.178573 
0.178573 0.178573 0.178573 0.178573 0.178573 0.178573 0.178573 0.178573 0.178573 
0.178573 0.178573 0.178573 0.178573 0.178573 0.178573 0.178573 0.178573 0.178573 
0.178573 0.178573 0.178573 0.178573 0.178573 0.178573 0.178573 0.178573 0.178573 
0.178573 0.178573 0.178573 0.178573 0.178573 0.178573 0.178573 0.178573 0.178573 
0.178573 0.178573 0.178573 0.178573 0.178573 0.178573 0.178573 0.178573 0.178573 
0.178573 0.178573 0.178573 0.178573 0.178573 0.178573 0.178573 0.178573 0.178573 
0.178573 0.178573 0.178573 0.178573 0.178573 0.178573 0.178573 0.178573 0.178573 
0.178573 0.178573 0.178573 0.178573 0.178573 0.178573 0.178573 0.178573 0.178573 
0.178573 0.178573 0.178573 0.178573 0.178573 0.178573 0.178573 0.178573 0.178573 
0.178573 0.178573 0.178573 0.178573 0.178573 0.178573 0.178573 0.178573 0.178573 
0.178573 0.178573 0.178573 0.178573 0.178573 0.178573 0.178573 0.178573 0.178573 
0.178573 0.178573 0.178573 0.178573 0.178573 0.178573 0.178573 0.178573 0.178573 
0.178573 0.178573 0.178573 0.178573 0.178573 0.178573 0.178573 0.178573 0.178573 
0.178573 0.178573 0.178573 0.178573 0.178573 0.178573 0.178573 0.178573 0.178573 
0.178573 0.178573 0.178573 0.178573 0.178573 0.178573 0.178573 0.178573 0.178573 
0.178573 0.178573 0.178573 0.178573 0.178573 0.178573 0.178573 0.178573 0.178573 
0.178573 0.178573 0.178573 0.178573 0.178573 0.178573 0.178573 0.178573 0.178573 
0.178573 0.178573 0.178573 0.178573 0.178573 0.178573 0.178573 0.178573 0.178573 
0.178573 0.178573 0.178573 0.178573 0.178573 0.178573 0.178573 0.178573 0.178573 
0.178573 0.178573 0.178573 0.178573 0.178573 0.178573 0.178573 0.178573 0.178573 
0.178573 0.178573 0.178573 0.178573 0.178573 0.178573 0.178573 0.178573 0.178573 
0.178573 0.178573 0.178573 0.178573 0.178573 0.178573 0.178573 0.178573 0.178573 
0.178573 0.178573 0.178573 0.178573 0.178573 0.178573 0.178573 0.178573 0.178573 
0.178573 0.178573 0.178573 0.178573 0.178573 0.178573 0.178573 0.178573 0.178573 
0.178573 0.178573 0.178573 0.178573 0.178573 0.178573 0.178573 0.178573 0.178573 
0.178573 0.178573 0.178573 0.178573 0.178573 0.178573 0.178573 0.178573 0.178573 
0.178573 0.178573 0.178573 0.178573 0.178573 0.178573 0.178573 0.178573 0.178573 
0.178573 0.178573 0.178573 0.178573 0.178573 0.178573 0.178573 0.178573 0.178573 
0.178573 0.178573 0.178573 0.178573 0.178573 0.178573 0.178573 0.178573 0.178573 
0.178573 0.178573 0.178573 0.178573 0.178573 0.178573 0.178573 0.178573 0.178573 
0.178573 0.178573 0.178573 0.178573 0.178573 0.178573 0.178573 0.178573 0.178573 
0.178573 0.178573 0.178573 0.178573 0.178573 0.178573 0.178573 0.178573 0.178573 
0.178573 0.178573 0.178573 0.178573 0.178573 0.178573 0.178573 0.178573 0.178573 
0.178573 0.178573 0.178573 0.178573 0.178573 0.178573 0.178573 0.178573 0.178573 
0.178573 0.178573 0.178573 0.178573 0.178573 0.178573 0.178573 0.178573 0.178573 
0.178573 0.178573 0.178573 0.178573 0.178573 0.178573 0.178573 0.178573 0.178573 
0.178573 0.178573 0.178573 0.178573 0.178573 0.178573 0.178573 0.178573 0.178573 
0.178573 0.178573 0.178573 0.178573 0.178573 0.178573 0.178573 0.178573 0.178573 
0.178573 0.178573 0.178573 0.178573 0.178573 0.178573 0.178573 0.178573 0.178573 
0.178573 0.178573 0.178573 0.178573 0.178573 0.178573 0.178573 0.178573 0.178573 
0.178573 0.178573 0.178573 0.178573 0.178573 0.178573 0.178573 0.178573 0.178573 
0.178573 0.178573 0.178573 0.178573 0.178573 0.178573 0.178573 0.178573 0.178573 
0.178573 0.178573 0.178573 0.178573 0.178573 0.178573 0.178573 0.178573 0.178573 
0.178573 0.178573 0.178573 0.178573 0.178573 0.178573 0.178573 0.178573 0.178573 
0.178573 0.178573 0.178573 0.178573 0.178573 0.178573 0.178573 0.178573 0.178573 
0.178573 0.178573 0.178573 0.178573 0.178573 0.178573 0.178573 0.178573 0.178573 
0.178573 0.178573 0.178573 0.178573 0.178573 0.178573 0.178573 0.178573 0.178573 
0.178573 0.178573 0.178573 0.178573 0.178573 0.178573 0.178573 0.178573 0.178573 
0.178573 0.178573 0.178573 0.178573 0.178573 0.178573 0.178573 0.178573 0.178573 
0.178573 0.178573 0.178573 0.178573 0.178573 0.178573 0.178573 0.178573 0.178573 
0.178573 0.178573 0.178573 0.178573 0.178573 0.178573 0.178573 0.178573 0.178573 
0.178573 0.178573 0.178573 0.178573 0.178573 0.178573 0.178573 0.178573 0.178573 
0.178573 0.178573 0.178573 0.178573 0.178573 0.178573 0.178573 0.178573 0.178573 
0.178573 0.178573 0.178573 0.178573 0.178573 0.178573 0.178573 0.178573 0.178573 
0.178573 0.178573 0.178573 0.178573 0.178573 0.178573 0.178573 0.178573 0.178573 
0.178573 0.178573 0.178573 0.178573 0.178573 0.178573 0.178573 0.178573 0.178573 
0.178573 0.178573 0.178573 0.178573 0.178573 0.178573 0.178573 0.178573 0.178573 
0.178573 0.178573 0.178573 0.178573 0.178573 0.178573 0.178573 0.178573 0.178573 
0.178573 0.178573 0.178573 0.178573 0.178573 0.178573 0.178573 0.178573 0.178573 
0.178573 0.178573 0.178573 0.178573 0.178573 0.178573 0.178573 0.178573 0.178573 
0.178573 0.178573 0.178573 0.178573 0.178573 0.178573 0.178573 0.178573 0.178573 
0.178573 0.178573 0.178573 0.178573 0.178573 0.178573 0.178573 0.178573 0.178573 
0.178573 0.178573 0.178573 0.178573 0.178573 0.178573 0.178573 0.178573 0.178573 
0.178573 0.178573 0.178573 0.178573 0.178573 0.178573 0.178573 0.178573 0.178573 
0.178573 0.178573 0.178573 0.178573 0.178573 0.178573 0.178573 0.178573 0.178573 
0.178573 0.178573 0.178573 0.178573 0.178573 0.178573 0.178573 0.178573 0.178573 
0.178573 0.178573 0.178573 0.178573 0.178573 0.178573 0.178573 0.178573 0.178573 
0.178573 0.178573 0.178573 0.178573 0.178573 0.178573 0.178573 0.178573 0.178573 
0.178573 0.178573 0.178573 0.178573 0.178573 0.178573 0.178573 0.178573 0.178573 
0.178573 0.178573 0.178573 0.178573 0.178573 0.178573 0.178573 0.178573 0.178573 
0.178573 0.178573 0.178573 0.178573 0.178573 0.178573 0.178573 0.178573 0.178573 
0.178573 0.178573 0.178573 0.178573 0.178573 0.178573 0.178573 0.178573 0.178573 
0.178573 0.178573 0.178573 0.178573 0.178573 0.178573 0.178573 0.178573 0.178573 
0.178573 0.178573 0.178573 0.178573 0.178573 0.178573 0.178573 0.178573 0.178573 
0.178573 0.178573 0.178573 0.178573 0.178573 0.178573 0.178573 0.178573 0.178573 
0.178573 0.178573 0.178573 0.178573 0.178573 0.178573 0.178573 0.178573 0.178573 
0.178573 0.178573 0.178573 0.178573 0.178573 0.178573 0.178573 0.178573 0.178573 
0.178573 0.178573 0.178573 0.178573 0.178573 0.178573 0.178573 0.178573 0.178573 
0.178573 0.178573 0.178573 0.178573 0.178573 0.178573 0.178573 0.178573 0.178573 
0.178573 0.178573 0.178573 0.178573 0.178573 0.178573 0.178573 0.178573 0.178573 
0.178573 0.178573 0.178573 0.178573 0.178573 0.178573 0.178573 0.178573 0.178573 
0.178573 0.178573 0.178573 0.178573 0.178573 0.178573 0.178573 0.178573 0.178573 
0.178573 0.178573 0.178573 0.178573 0.178573 0.178573 0.178573 0.178573 0.178573 
0.178573 0.178573 0.178573 0.178573 0.178573 0.178573 0.178573 0.178573 0.178573 
0.178573 0.178573 0.178573 0.178573 0.178573 0.178573 0.178573 0.178573 0.178573 
0.178573 0.178573 0.178573 0.178573 0.178573 0.178573 0.178573 0.178573 0.178573 
0.178573 0.178573 0.178573 0.178573 0.178573 0.178573 0.178573 0.178573 0.178573 
0.178573 0.178573 0.178573 0.178573 0.178573 0.178573 0.178573 0.178573 0.178573 
0.178573 0.178573 0.178573 0.178573 0.178573 0.178573 0.178573 0.178573 0.178573 
0.178573 0.178573 0.178573 0.178573 0.178573 0.178573 0.178573 0.178573 0.178573 
0.178573 0.178573 0.178573 0.178573 0.178573 0.178573 0.178573 0.178573 0.178573 
0.178573 0.178573 0.178573 0.178573 0.178573 0.178573 0.178573 0.178573 0.178573 
0.178573 0.178573 0.178573 0.178573 0.178573 0.178573 0.178573 0.178573 0.178573 
0.178573 0.178573 0.178573 0.178573 0.178573 0.178573 0.178573 0.178573 0.178573 
0.178573 0.178573 0.178573 0.178573 0.178573 0.178573 0.178573 0.178573 0.178573 
0.178573 0.178573 0.178573 0.178573 0.178573 0.178573 0.178573 0.178573 0.178573 
0.178573 0.178573 0.178573 0.178573 0.178573 0.178573 0.178573 0.178573 0.178573 
0.178573 0.178573 0.178573 0.178573 0.178573 0.178573 0.178573 0.178573 0.178573 
0.178573 0.178573 0.178573 0.178573 0.178573 0.178573 0.178573 0.178573 0.178573 
0.178573 0.178573 0.178573 0.178573 0.178573 0.178573 0.178573 0.178573 0.178573 
0.178573 0.178573 0.178573 0.178573 0.178573 0.178573 0.178573 0.178573 0.178573 
0.178573 0.178573 0.178573 0.178573 0.178573 0.178573 0.178573 0.178573 0.178573 
0.178573 0.178573 0.178573 0.178573 0.178573 0.178573 0.178573 0.178573 0.178573 
0.178573 0.178573 0.178573 0.178573 0.178573 0.178573 0.178573 0.178573 0.178573 
0.178573 0.178573 0.178573 0.178573 0.178573 0.178573 0.178573 0.178573 0.178573 
0.178573 0.178573 0.178573 0.178573 0.178573 0.178573 0.178573 0.178573 0.178573 
0.178573 0.178573 0.178573 0.178573 0.178573 0.178573 0.178573 0.178573 0.178573 
0.178573 0.178573 0.178573 0.178573 0.178573 0.178573 0.178573 0.178573 0.178573 
0.178573 0.178573 0.178573 0.178573 0.178573 0.178573 0.178573 0.178573 0.178573 
0.178573 0.178573 0.178573 0.178573 0.178573 0.178573 0.178573 0.178573 0.178573 
0.178573 0.178573 0.178573 0.178573 0.178573 0.178573 0.178573 0.178573 0.178573 
0.178573 0.178573 0.178573 0.178573 0.178573 0.178573 0.178573 0.178573 0.178573 
0.178573 0.178573 0.178573 0.178573 0.178573 0.178573 0.178573 0.178573 0.178573 
0.178573 0.178573 0.178573 0.178573 0.178573 0.178573 0.178573 0.178573 0.178573 
0.178573 0.178573 0.178573 0.178573 0.178573 0.178573 0.178573 0.178573 0.178573 
0.178573 0.178573 0.178573 0.178573 0.178573 0.178573 0.178573 0.178573 0.178573 
0.178573 0.178573 0.178573 0.178573 0.178573 0.178573 0.178573 0.178573 0.178573 
0.178573 0.178573 0.178573 0.178573 0.178573 0.178573 0.178573 0.178573 0.178573 
0.178573 0.178573 0.178573 0.178573 0.178573 0.178573 0.178573 0.178573 0.178573 
0.178573 0.178573 0.178573 0.178573 0.178573 0.178573 0.178573 0.178573 0.178573 
0.178573 0.178573 0.178573 0.178573 0.178573 0.178573 0.178573 0.178573 0.178573 
0.178573 0.178573 0.178573 0.178573 0.178573 0.178573 0.178573 0.178573 0.178573 
0.178573 0.178573 0.178573 0.178573 0.178573 0.178573 0.178573 0.178573 0.178573 
0.178573 0.178573 0.178573 0.178573 0.178573 0.178573 0.178573 0.178573 0.178573 
0.178573 0.178573 0.178573 0.178573 0.178573 0.178573 0.178573 0.178573 0.178573 
0.178573 0.178573 0.178573 0.178573 0.178573 0.178573 0.178573 0.178573 0.178573 
0.178573 0.178573 0.178573 0.178573 0.178573 0.178573 0.178573 0.178573 0.178573 
0.178573 0.178573 0.178573 0.178573 0.178573 0.178573 0.178573 0.178573 0.178573 
0.178573 0.178573 0.178573 0.178573 0.178573 0.178573 0.178573 0.178573 0.178573 
0.178573 0.178573 0.178573 0.178573 0.178573 0.178573 0.178573 0.178573 0.178573 
0.178573 0.178573 0.178573 0.178573 0.178573 0.178573 0.178573 0.178573 0.178573 
0.178573 0.178573 0.178573 0.178573 0.178573 0.178573 0.178573 0.178573 0.178573 
0.178573 0.178573 0.178573 0.178573 0.178573 0.178573 0.178573 0.178573 0.178573 
0.178573 0.178573 0.178573 0.178573 0.178573 0.178573 0.178573 0.178573 0.178573 
0.178573 0.178573 0.178573 0.178573 0.178573 0.178573 0.178573 0.178573 0.178573 
0.178573 0.178573 0.178573 0.178573 0.178573 0.178573 0.178573 0.178573 0.178573 
0.178573 0.178573 0.178573 0.178573 0.178573 0.178573 0.178573 0.178573 0.178573 
0.178573 0.178573 0.178573 0.178573 0.178573 0.178573 0.178573 0.178573 0.178573 