# vtk DataFile Version 5.1
vtk output
ASCII
DATASET STRUCTURED_GRID
DIMENSIONS 12 25 12
POINTS 3600 float
2.5 3 0.55 2.5 2.7096 0.55 2.5 2.47868 0.55 
2.5 2.29456 0.55 2.5 2.14718 0.55 2.5 2.02846 0.55 
2.5 1.9319 0.55 2.5 1.85221 0.55 2.5 1.78502 0.55 
2.5 1.72665 0.55 2.5 1.67391 0.55 2.5 1.62391 0.55 
2.5 3 0.553 2.5 2.7096 0.553 2.5 2.47868 0.553 
2.5 2.29456 0.553 2.5 2.14718 0.553 2.5 2.02846 0.553 
2.5 1.9319 0.553 2.5 1.85221 0.553 2.5 1.78502 0.553 
2.5 1.72665 0.553 2.5 1.67391 0.553 2.5 1.62391 0.553 
2.5 3 0.55609 2.5 2.7096 0.55609 2.5 2.47868 0.55609 
2.5 2.29456 0.55609 2.5 2.14718 0.55609 2.5 2.02846 0.55609 
2.5 1.9319 0.55609 2.5 1.85221 0.55609 2.5 1.78502 0.55609 
2.5 1.72665 0.55609 2.5 1.67391 0.55609 2.5 1.62391 0.55609 
2.5 3 0.559363 2.5 2.7096 0.559363 2.5 2.47868 0.559363 
2.5 2.29456 0.559363 2.5 2.14718 0.559363 2.5 2.02846 0.559363 
2.5 1.9319 0.559363 2.5 1.85221 0.559363 2.5 1.78502 0.559363 
2.5 1.72665 0.559363 2.5 1.67391 0.559363 2.5 1.62391 0.559363 
2.5 3 0.562918 2.5 2.7096 0.562918 2.5 2.47868 0.562918 
2.5 2.29456 0.562918 2.5 2.14718 0.562918 2.5 2.02846 0.562918 
2.5 1.9319 0.562918 2.5 1.85221 0.562918 2.5 1.78502 0.562918 
2.5 1.72665 0.562918 2.5 1.67391 0.562918 2.5 1.62391 0.562918 
2.5 3 0.566862 2.5 2.7096 0.566862 2.5 2.47868 0.566862 
2.5 2.29456 0.566862 2.5 2.14718 0.566862 2.5 2.02846 0.566862 
2.5 1.9319 0.566862 2.5 1.85221 0.566862 2.5 1.78502 0.566862 
2.5 1.72665 0.566862 2.5 1.67391 0.566862 2.5 1.62391 0.566862 
2.5 3 0.571312 2.5 2.7096 0.571312 2.5 2.47868 0.571312 
2.5 2.29456 0.571312 2.5 2.14718 0.571312 2.5 2.02846 0.571312 
2.5 1.9319 0.571312 2.5 1.85221 0.571312 2.5 1.78502 0.571312 
2.5 1.72665 0.571312 2.5 1.67391 0.571312 2.5 1.62391 0.571312 
2.5 3 0.576403 2.5 2.7096 0.576403 2.5 2.47868 0.576403 
2.5 2.29456 0.576403 2.5 2.14718 0.576403 2.5 2.02846 0.576403 
2.5 1.9319 0.576403 2.5 1.85221 0.576403 2.5 1.78502 0.576403 
2.5 1.72665 0.576403 2.5 1.67391 0.576403 2.5 1.62391 0.576403 
2.5 3 0.582287 2.5 2.7096 0.582287 2.5 2.47868 0.582287 
2.5 2.29456 0.582287 2.5 2.14718 0.582287 2.5 2.02846 0.582287 
2.5 1.9319 0.582287 2.5 1.85221 0.582287 2.5 1.78502 0.582287 
2.5 1.72665 0.582287 2.5 1.67391 0.582287 2.5 1.62391 0.582287 
2.5 3 0.589143 2.5 2.7096 0.589143 2.5 2.47868 0.589143 
2.5 2.29456 0.589143 2.5 2.14718 0.589143 2.5 2.02846 0.589143 
2.5 1.9319 0.589143 2.5 1.85221 0.589143 2.5 1.78502 0.589143 
2.5 1.72665 0.589143 2.5 1.67391 0.589143 2.5 1.62391 0.589143 
2.5 3 0.597175 2.5 2.7096 0.597175 2.5 2.47868 0.597175 
2.5 2.29456 0.597175 2.5 2.14718 0.597175 2.5 2.02846 0.597175 
2.5 1.9319 0.597175 2.5 1.85221 0.597175 2.5 1.78502 0.597175 
2.5 1.72665 0.597175 2.5 1.67391 0.597175 2.5 1.62391 0.597175 
2.5 3 0.606626 2.5 2.7096 0.606626 2.5 2.47868 0.606626 
2.5 2.29456 0.606626 2.5 2.14718 0.606626 2.5 2.02846 0.606626 
2.5 1.9319 0.606626 2.5 1.85221 0.606626 2.5 1.78502 0.606626 
2.5 1.72665 0.606626 2.5 1.67391 0.606626 2.5 1.62391 0.606626 
2.5 3 0.617779 2.5 2.7096 0.617779 2.5 2.47868 0.617779 
2.5 2.29456 0.617779 2.5 2.14718 0.617779 2.5 2.02846 0.617779 
2.5 1.9319 0.617779 2.5 1.85221 0.617779 2.5 1.78502 0.617779 
2.5 1.72665 0.617779 2.5 1.67391 0.617779 2.5 1.62391 0.617779 
2.5 3 0.630969 2.5 2.7096 0.630969 2.5 2.47868 0.630969 
2.5 2.29456 0.630969 2.5 2.14718 0.630969 2.5 2.02846 0.630969 
2.5 1.9319 0.630969 2.5 1.85221 0.630969 2.5 1.78502 0.630969 
2.5 1.72665 0.630969 2.5 1.67391 0.630969 2.5 1.62391 0.630969 
2.5 3 0.646595 2.5 2.7096 0.646595 2.5 2.47868 0.646595 
2.5 2.29456 0.646595 2.5 2.14718 0.646595 2.5 2.02846 0.646595 
2.5 1.9319 0.646595 2.5 1.85221 0.646595 2.5 1.78502 0.646595 
2.5 1.72665 0.646595 2.5 1.67391 0.646595 2.5 1.62391 0.646595 
2.5 3 0.665124 2.5 2.7096 0.665124 2.5 2.47868 0.665124 
2.5 2.29456 0.665124 2.5 2.14718 0.665124 2.5 2.02846 0.665124 
2.5 1.9319 0.665124 2.5 1.85221 0.665124 2.5 1.78502 0.665124 
2.5 1.72665 0.665124 2.5 1.67391 0.665124 2.5 1.62391 0.665124 
2.5 3 0.687115 2.5 2.7096 0.687115 2.5 2.47868 0.687115 
2.5 2.29456 0.687115 2.5 2.14718 0.687115 2.5 2.02846 0.687115 
2.5 1.9319 0.687115 2.5 1.85221 0.687115 2.5 1.78502 0.687115 
2.5 1.72665 0.687115 2.5 1.67391 0.687115 2.5 1.62391 0.687115 
2.5 3 0.713228 2.5 2.7096 0.713228 2.5 2.47868 0.713228 
2.5 2.29456 0.713228 2.5 2.14718 0.713228 2.5 2.02846 0.713228 
2.5 1.9319 0.713228 2.5 1.85221 0.713228 2.5 1.78502 0.713228 
2.5 1.72665 0.713228 2.5 1.67391 0.713228 2.5 1.62391 0.713228 
2.5 3 0.744248 2.5 2.7096 0.744248 2.5 2.47868 0.744248 
2.5 2.29456 0.744248 2.5 2.14718 0.744248 2.5 2.02846 0.744248 
2.5 1.9319 0.744248 2.5 1.85221 0.744248 2.5 1.78502 0.744248 
2.5 1.72665 0.744248 2.5 1.67391 0.744248 2.5 1.62391 0.744248 
2.5 3 0.781109 2.5 2.7096 0.781109 2.5 2.47868 0.781109 
2.5 2.29456 0.781109 2.5 2.14718 0.781109 2.5 2.02846 0.781109 
2.5 1.9319 0.781109 2.5 1.85221 0.781109 2.5 1.78502 0.781109 
2.5 1.72665 0.781109 2.5 1.67391 0.781109 2.5 1.62391 0.781109 
2.5 3 0.824918 2.5 2.7096 0.824918 2.5 2.47868 0.824918 
2.5 2.29456 0.824918 2.5 2.14718 0.824918 2.5 2.02846 0.824918 
2.5 1.9319 0.824918 2.5 1.85221 0.824918 2.5 1.78502 0.824918 
2.5 1.72665 0.824918 2.5 1.67391 0.824918 2.5 1.62391 0.824918 
2.5 3 0.876993 2.5 2.7096 0.876993 2.5 2.47868 0.876993 
2.5 2.29456 0.876993 2.5 2.14718 0.876993 2.5 2.02846 0.876993 
2.5 1.9319 0.876993 2.5 1.85221 0.876993 2.5 1.78502 0.876993 
2.5 1.72665 0.876993 2.5 1.67391 0.876993 2.5 1.62391 0.876993 
2.5 3 0.938899 2.5 2.7096 0.938899 2.5 2.47868 0.938899 
2.5 2.29456 0.938899 2.5 2.14718 0.938899 2.5 2.02846 0.938899 
2.5 1.9319 0.938899 2.5 1.85221 0.938899 2.5 1.78502 0.938899 
2.5 1.72665 0.938899 2.5 1.67391 0.938899 2.5 1.62391 0.938899 
2.5 3 1.0125 2.5 2.7096 1.0125 2.5 2.47868 1.0125 
2.5 2.29456 1.0125 2.5 2.14718 1.0125 2.5 2.02846 1.0125 
2.5 1.9319 1.0125 2.5 1.85221 1.0125 2.5 1.78502 1.0125 
2.5 1.72665 1.0125 2.5 1.67391 1.0125 2.5 1.62391 1.0125 
2.5 3 1.1 2.5 2.7096 1.1 2.5 2.47868 1.1 
2.5 2.29456 1.1 2.5 2.14718 1.1 2.5 2.02846 1.1 
2.5 1.9319 1.1 2.5 1.85221 1.1 2.5 1.78502 1.1 
2.5 1.72665 1.1 2.5 1.67391 1.1 2.5 1.62391 1.1 
2.29601 3 0.55 2.29601 2.7096 0.55 2.29601 2.47868 0.55 
2.29601 2.29456 0.55 2.29601 2.14718 0.55 2.29601 2.02846 0.55 
2.29601 1.9319 0.55 2.29601 1.85221 0.55 2.29601 1.78502 0.55 
2.29601 1.72665 0.55 2.29601 1.67391 0.55 2.29601 1.62391 0.55 
2.29601 3 0.553 2.29601 2.7096 0.553 2.29601 2.47868 0.553 
2.29601 2.29456 0.553 2.29601 2.14718 0.553 2.29601 2.02846 0.553 
2.29601 1.9319 0.553 2.29601 1.85221 0.553 2.29601 1.78502 0.553 
2.29601 1.72665 0.553 2.29601 1.67391 0.553 2.29601 1.62391 0.553 
2.29601 3 0.55609 2.29601 2.7096 0.55609 2.29601 2.47868 0.55609 
2.29601 2.29456 0.55609 2.29601 2.14718 0.55609 2.29601 2.02846 0.55609 
2.29601 1.9319 0.55609 2.29601 1.85221 0.55609 2.29601 1.78502 0.55609 
2.29601 1.72665 0.55609 2.29601 1.67391 0.55609 2.29601 1.62391 0.55609 
2.29601 3 0.559363 2.29601 2.7096 0.559363 2.29601 2.47868 0.559363 
2.29601 2.29456 0.559363 2.29601 2.14718 0.559363 2.29601 2.02846 0.559363 
2.29601 1.9319 0.559363 2.29601 1.85221 0.559363 2.29601 1.78502 0.559363 
2.29601 1.72665 0.559363 2.29601 1.67391 0.559363 2.29601 1.62391 0.559363 
2.29601 3 0.562918 2.29601 2.7096 0.562918 2.29601 2.47868 0.562918 
2.29601 2.29456 0.562918 2.29601 2.14718 0.562918 2.29601 2.02846 0.562918 
2.29601 1.9319 0.562918 2.29601 1.85221 0.562918 2.29601 1.78502 0.562918 
2.29601 1.72665 0.562918 2.29601 1.67391 0.562918 2.29601 1.62391 0.562918 
2.29601 3 0.566862 2.29601 2.7096 0.566862 2.29601 2.47868 0.566862 
2.29601 2.29456 0.566862 2.29601 2.14718 0.566862 2.29601 2.02846 0.566862 
2.29601 1.9319 0.566862 2.29601 1.85221 0.566862 2.29601 1.78502 0.566862 
2.29601 1.72665 0.566862 2.29601 1.67391 0.566862 2.29601 1.62391 0.566862 
2.29601 3 0.571312 2.29601 2.7096 0.571312 2.29601 2.47868 0.571312 
2.29601 2.29456 0.571312 2.29601 2.14718 0.571312 2.29601 2.02846 0.571312 
2.29601 1.9319 0.571312 2.29601 1.85221 0.571312 2.29601 1.78502 0.571312 
2.29601 1.72665 0.571312 2.29601 1.67391 0.571312 2.29601 1.62391 0.571312 
2.29601 3 0.576403 2.29601 2.7096 0.576403 2.29601 2.47868 0.576403 
2.29601 2.29456 0.576403 2.29601 2.14718 0.576403 2.29601 2.02846 0.576403 
2.29601 1.9319 0.576403 2.29601 1.85221 0.576403 2.29601 1.78502 0.576403 
2.29601 1.72665 0.576403 2.29601 1.67391 0.576403 2.29601 1.62391 0.576403 
2.29601 3 0.582287 2.29601 2.7096 0.582287 2.29601 2.47868 0.582287 
2.29601 2.29456 0.582287 2.29601 2.14718 0.582287 2.29601 2.02846 0.582287 
2.29601 1.9319 0.582287 2.29601 1.85221 0.582287 2.29601 1.78502 0.582287 
2.29601 1.72665 0.582287 2.29601 1.67391 0.582287 2.29601 1.62391 0.582287 
2.29601 3 0.589143 2.29601 2.7096 0.589143 2.29601 2.47868 0.589143 
2.29601 2.29456 0.589143 2.29601 2.14718 0.589143 2.29601 2.02846 0.589143 
2.29601 1.9319 0.589143 2.29601 1.85221 0.589143 2.29601 1.78502 0.589143 
2.29601 1.72665 0.589143 2.29601 1.67391 0.589143 2.29601 1.62391 0.589143 
2.29601 3 0.597175 2.29601 2.7096 0.597175 2.29601 2.47868 0.597175 
2.29601 2.29456 0.597175 2.29601 2.14718 0.597175 2.29601 2.02846 0.597175 
2.29601 1.9319 0.597175 2.29601 1.85221 0.597175 2.29601 1.78502 0.597175 
2.29601 1.72665 0.597175 2.29601 1.67391 0.597175 2.29601 1.62391 0.597175 
2.29601 3 0.606626 2.29601 2.7096 0.606626 2.29601 2.47868 0.606626 
2.29601 2.29456 0.606626 2.29601 2.14718 0.606626 2.29601 2.02846 0.606626 
2.29601 1.9319 0.606626 2.29601 1.85221 0.606626 2.29601 1.78502 0.606626 
2.29601 1.72665 0.606626 2.29601 1.67391 0.606626 2.29601 1.62391 0.606626 
2.29601 3 0.617779 2.29601 2.7096 0.617779 2.29601 2.47868 0.617779 
2.29601 2.29456 0.617779 2.29601 2.14718 0.617779 2.29601 2.02846 0.617779 
2.29601 1.9319 0.617779 2.29601 1.85221 0.617779 2.29601 1.78502 0.617779 
2.29601 1.72665 0.617779 2.29601 1.67391 0.617779 2.29601 1.62391 0.617779 
2.29601 3 0.630969 2.29601 2.7096 0.630969 2.29601 2.47868 0.630969 
[...]
POINT_DATA 3600
FIELD FieldData 5
pressure 1 3600 float
0.178573 0.178604 0.17936 0.181777 0.190669 0.208423 0.233471 0.254177 0.25847 
0.255422 0.248317 0.235514 0.178573 0.178604 0.179351 0.181738 0.190529 0.208111 
0.233041 0.253793 0.258268 0.255372 0.248448 0.235809 0.178573 0.178603 0.179342 
0.1817 0.190392 0.207811 0.232633 0.253437 0.258107 0.255315 0.248627 0.23614 
0.178573 0.178603 0.179335 0.181671 0.190279 0.207563 0.232277 0.253146 0.257947 
0.255298 0.248799 0.236466 0.178573 0.178603 0.179327 0.181637 0.190153 0.207274 
0.231876 0.252799 0.257784 0.25526 0.248989 0.236816 0.178573 0.178603 0.179319 
0.181602 0.190017 0.206975 0.231432 0.252439 0.257585 0.255231 0.249183 0.237192 
0.178573 0.178603 0.179309 0.181561 0.189867 0.206626 0.230931 0.252008 0.257362 
0.25519 0.249391 0.237607 0.178573 0.178602 0.179299 0.181517 0.189694 0.206243 
0.230344 0.251525 0.257091 0.255146 0.249619 0.238071 0.178573 0.178602 0.179287 
0.181465 0.189501 0.205789 0.229671 0.250946 0.25677 0.2551 0.249858 0.238599 
0.178573 0.178602 0.179273 0.181407 0.189272 0.205277 0.228864 0.250267 0.256393 
0.255048 0.250117 0.2392 0.178573 0.178601 0.179257 0.181337 0.189015 0.204667 
0.227921 0.249454 0.255919 0.254982 0.250377 0.239893 0.178573 0.178601 0.179238 
0.18126 0.188708 0.203964 0.226791 0.248474 0.255363 0.254838 0.250619 0.240679 
0.178573 0.1786 0.179217 0.181167 0.188359 0.203134 0.225456 0.247266 0.254634 
0.254614 0.250828 0.241574 0.178573 0.178599 0.179191 0.181063 0.187947 0.20217 
0.223848 0.245683 0.253781 0.25429 0.250881 0.242544 0.178573 0.178598 0.179163 
0.180939 0.187478 0.201039 0.221965 0.243605 0.252643 0.25379 0.250819 0.243592 
0.178573 0.178597 0.179128 0.180802 0.186932 0.199736 0.219703 0.241005 0.251294 
0.253224 0.250768 0.244574 0.178573 0.178596 0.179091 0.18064 0.186317 0.19822 
0.217062 0.237805 0.249714 0.252247 0.250489 0.24534 0.178573 0.178594 0.179046 
0.180463 0.185615 0.196507 0.213956 0.233969 0.247394 0.250894 0.249889 0.245535 
0.178573 0.178592 0.178998 0.18026 0.184839 0.194561 0.210428 0.229364 0.244097 
0.248552 0.248629 0.245423 0.178573 0.17859 0.178943 0.180043 0.183984 0.192437 
0.206407 0.223916 0.239621 0.245608 0.247055 0.244817 0.178573 0.178587 0.178884 
0.179801 0.183067 0.190092 0.201928 0.21736 0.232679 0.240794 0.243452 0.242836 
0.178573 0.178585 0.178821 0.179555 0.18212 0.187684 0.197176 0.210008 0.22394 
0.234231 0.23861 0.239632 0.178573 0.178581 0.178753 0.179284 0.181114 0.185078 
0.191958 0.201592 0.212876 0.223413 0.229751 0.232486 0.178573 0.178578 0.178686 
0.179025 0.180175 0.182683 0.187063 0.193339 0.20102 0.209045 0.216355 0.22035 
0.178573 0.178574 0.1786 0.178681 0.178949 0.179556 0.180682 0.18242 0.184782 
0.187586 0.190646 0.193427 0.178573 0.178604 0.17936 0.181777 0.190669 0.208423 
0.233471 0.254177 0.25847 0.255422 0.248317 0.235514 0.178573 0.178604 0.179351 
0.181738 0.190529 0.208111 0.233041 0.253793 0.258268 0.255372 0.248448 0.235809 
0.178573 0.178603 0.179342 0.1817 0.190392 0.207811 0.232633 0.253437 0.258107 
0.255315 0.248627 0.23614 0.178573 0.178603 0.179335 0.181671 0.190279 0.207563 
0.232277 0.253146 0.257947 0.255298 0.248799 0.236466 0.178573 0.178603 0.179327 
0.181637 0.190153 0.207274 0.231876 0.252799 0.257784 0.25526 0.248989 0.236816 
0.178573 0.178603 0.179319 0.181602 0.190017 0.206975 0.231432 0.252439 0.257585 
0.255231 0.249183 0.237192 0.178573 0.178603 0.179309 0.181561 0.189867 0.206626 
0.230931 0.252008 0.257362 0.25519 0.249391 0.237607 0.178573 0.178602 0.179299 
0.181517 0.189694 0.206243 0.230344 0.251525 0.257091 0.255146 0.249619 0.238071 
0.178573 0.178602 0.179287 0.181465 0.189501 0.205789 0.229671 0.250946 0.25677 
0.2551 0.249858 0.238599 0.178573 0.178602 0.179273 0.181407 0.189272 0.205277 
0.228864 0.250267 0.256393 0.255048 0.250117 0.2392 0.178573 0.178601 0.179257 
0.181337 0.189015 0.204667 0.227921 0.249454 0.255919 0.254982 0.250377 0.239893 
0.178573 0.178601 0.179238 0.18126 0.188708 0.203964 0.226791 0.248474 0.255363 
0.254838 0.250619 0.240679 0.178573 0.1786 0.179217 0.181167 0.188359 0.203134 
0.225456 0.247266 0.254634 0.254614 0.250828 0.241574 0.178573 0.178599 0.179191 
0.181063 0.187947 0.20217 0.223848 0.245683 0.253781 0.25429 0.250881 0.242544 
0.178573 0.178598 0.179163 0.180939 0.187478 0.201039 0.221965 0.243605 0.252643 
0.25379 0.250819 0.243592 0.178573 0.178597 0.179128 0.180802 0.186932 0.199736 
0.219703 0.241005 0.251294 0.253224 0.250768 0.244574 0.178573 0.178596 0.179091 
0.18064 0.186317 0.19822 0.217062 0.237805 0.249714 0.252247 0.250489 0.24534 
0.178573 0.178594 0.179046 0.180463 0.185615 0.196507 0.213956 0.233969 0.247394 
0.250894 0.249889 0.245535 0.178573 0.178592 0.178998 0.18026 0.184839 0.194561 
0.210428 0.229364 0.244097 0.248552 0.248629 0.245423 0.178573 0.17859 0.178943 
0.180043 0.183984 0.192437 0.206407 0.223916 0.239621 0.245608 0.247055 0.244817 
0.178573 0.178587 0.178884 0.179801 0.183067 0.190092 0.201928 0.21736 0.232679 
0.240794 0.243452 0.242836 0.178573 0.178585 0.178821 0.179555 0.18212 0.187684 
0.197176 0.210008 0.22394 0.234231 0.23861 0.239632 0.178573 0.178581 0.178753 
0.179284 0.181114 0.185078 0.191958 0.201592 0.212876 0.223413 0.229751 0.232486 
0.178573 0.178578 0.178686 0.179025 0.180175 0.182683 0.187063 0.193339 0.20102 
0.209045 0.216355 0.22035 0.178573 0.178574 0.1786 0.178681 0.178949 0.179556 
0.180682 0.18242 0.184782 0.187586 0.190646 0.193427 0.178573 0.178573 0.17857 
0.178566 0.178616 0.179206 0.183795 0.205413 0.247117 0.281538 0.294915 0.294429 
0.178573 0.178573 0.17857 0.178566 0.178613 0.179173 0.183553 0.204771 0.246115 
0.280543 0.294355 0.294168 0.178573 0.178573 0.17857 0.178565 0.17861 0.179144 
0.18333 0.204124 0.245182 0.279604 0.293828 0.293942 0.178573 0.178573 0.17857 
0.178565 0.178608 0.179114 0.183132 0.203523 0.244313 0.27872 0.29335 0.293739 
0.178573 0.178573 0.17857 0.178565 0.178605 0.179087 0.182921 0.202868 0.243341 
0.27774 0.292811 0.293503 0.178573 0.178573 0.17857 0.178565 0.178603 0.179055 
0.182713 0.202159 0.242299 0.276669 0.292222 0.293246 0.178573 0.178573 0.17857 
0.178565 0.1786 0.179026 0.182485 0.201373 0.241117 0.275439 0.291552 0.292933 
0.178573 0.178573 0.17857 0.178565 0.178597 0.178991 0.182251 0.200483 0.23978 
0.27403 0.290777 0.292566 0.178573 0.178573 0.17857 0.178566 0.178594 0.178958 
0.181992 0.199475 0.238236 0.272367 0.289878 0.29211 0.178573 0.178573 0.17857 
0.178565 0.178592 0.178918 0.181723 0.198315 0.236443 0.2704 0.288812 0.291556 
0.178573 0.178573 0.17857 0.178566 0.178587 0.17888 0.181432 0.196991 0.234353 
0.268055 0.287545 0.290859 0.178573 0.178573 0.17857 0.178566 0.178585 0.178837 
0.181131 0.195452 0.231895 0.265343 0.286016 0.289992 0.178573 0.178573 0.17857 
0.178566 0.178581 0.178798 0.180817 0.193747 0.229023 0.26212 0.284146 0.288895 
0.178573 0.178573 0.17857 0.178567 0.178578 0.178755 0.180507 0.191916 0.225607 
0.258342 0.281819 0.287492 0.178573 0.178573 0.17857 0.178567 0.178574 0.178719 
0.180198 0.190121 0.221661 0.25382 0.278756 0.285725 0.178573 0.178573 0.17857 
0.178568 0.178572 0.178682 0.179911 0.188279 0.216898 0.248324 0.274312 0.283342 
0.178573 0.178573 0.178571 0.178568 0.178568 0.178655 0.179626 0.186404 0.211395 
0.241979 0.26833 0.280255 0.178573 0.178573 0.178571 0.178569 0.178566 0.178629 
0.179364 0.184489 0.205157 0.234089 0.261173 0.27662 0.178573 0.178573 0.178571 
0.17857 0.178564 0.178611 0.179114 0.182694 0.198631 0.225476 0.2522 0.270163 
0.178573 0.178574 0.178571 0.17857 0.178565 0.17859 0.178898 0.181059 0.191594 
0.215339 0.24093 0.260691 0.178573 0.178574 0.178571 0.17857 0.178566 0.178576 
0.178735 0.179976 0.18632 0.204532 0.227307 0.246897 0.178573 0.178573 0.178572 
0.17857 0.178569 0.178567 0.17864 0.179261 0.18241 0.193132 0.212636 0.230974 
0.178573 0.178573 0.178572 0.178569 0.178571 0.178565 0.178585 0.178819 0.18004 
0.184622 0.196594 0.212721 0.178573 0.178573 0.178572 0.178568 0.178571 0.178569 
0.178566 0.178629 0.179046 0.180489 0.184575 0.193283 0.178573 0.178573 0.178573 
0.178572 0.178569 0.178568 0.178568 0.178564 0.17858 0.178679 0.179073 0.180217 
0.178573 0.178575 0.178587 0.178574 0.178547 0.178476 0.178626 0.179224 0.182844 
0.199422 0.242287 0.284836 0.178573 0.178575 0.178587 0.178575 0.178547 0.178476 
0.178624 0.179196 0.182689 0.198798 0.240779 0.283226 0.178573 0.178575 0.178587 
0.178575 0.178548 0.178476 0.178622 0.179171 0.182547 0.198177 0.239264 0.281664 
0.178573 0.178575 0.178587 0.178575 0.178548 0.178476 0.17862 0.179151 0.182419 
0.197613 0.237779 0.280141 0.178573 0.178575 0.178587 0.178575 0.178549 0.178476 
0.178618 0.179127 0.182285 0.196992 0.236162 0.278479 0.178573 0.178575 0.178587 
0.178575 0.178549 0.178477 0.178615 0.179104 0.182143 0.196337 0.234417 0.276673 
0.178573 0.178575 0.178587 0.178575 0.17855 0.178478 0.178612 0.179076 0.181991 
0.195608 0.232467 0.274642 0.178573 0.178575 0.178587 0.178576 0.178551 0.17848 
0.178608 0.179049 0.181823 0.194803 0.230281 0.27234 0.178573 0.178575 0.178587 
0.178576 0.178552 0.178481 0.178604 0.179016 0.181641 0.193897 0.227795 0.26969 
0.178573 0.178575 0.178587 0.178576 0.178553 0.178484 0.178598 0.178983 0.181438 
0.192882 0.224968 0.266616 0.178573 0.178575 0.178587 0.178576 0.178555 0.178487 
0.178592 0.178945 0.181218 0.191741 0.221745 0.263021 0.178573 0.178575 0.178588 
0.178576 0.178557 0.178492 0.178582 0.178905 0.180974 0.190473 0.218104 0.25881 
0.178573 0.178575 0.178588 0.178577 0.178559 0.178497 0.178571 0.178861 0.180712 
0.189084 0.214048 0.253844 0.178573 0.178575 0.178588 0.178577 0.178561 0.178504 
0.178555 0.178817 0.180428 0.187605 0.209687 0.248058 0.178573 0.178575 0.178588 
0.178577 0.178564 0.178511 0.178537 0.178771 0.180131 0.186094 0.205199 0.241253 
0.178573 0.178575 0.178588 0.178577 0.178567 0.17852 0.178516 0.178728 0.179825 
0.184628 0.200759 0.233385 0.178573 0.178575 0.178588 0.178578 0.178569 0.178528 
0.178498 0.178686 0.179527 0.183251 0.196218 0.224474 0.178573 0.178575 0.178588 
0.178578 0.178572 0.178537 0.178484 0.178649 0.179242 0.182004 0.191708 0.215285 
0.178573 0.178575 0.178588 0.178579 0.178574 0.178544 0.178482 0.178611 0.178997 
0.180902 0.187438 0.205352 0.178573 0.178575 0.178587 0.178579 0.178575 0.178552 
0.178491 0.178573 0.178802 0.180005 0.184067 0.196201 0.178573 0.178575 0.178586 
0.178581 0.178576 0.178561 0.178511 0.178523 0.178674 0.179318 0.18161 0.188382 
0.178573 0.178574 0.178585 0.178583 0.178577 0.178568 0.17853 0.178488 0.178599 
0.178881 0.180037 0.183545 0.178573 0.178574 0.178583 0.178585 0.178577 0.178574 
0.178551 0.1785 0.178528 0.178648 0.17909 0.180468 0.178573 0.178573 0.17858 
0.178585 0.178578 0.178577 0.178567 0.178528 0.178497 0.17855 0.178692 0.179158 
0.178573 0.178573 0.178574 0.178578 0.178583 0.17858 0.178575 0.178567 0.178542 
0.178518 0.178498 0.178541 0.178573 0.178571 0.178566 0.178574 0.178592 0.178602 
0.17854 0.178473 0.178687 0.179694 0.184876 0.20686 0.178573 0.178571 0.178566 
0.178574 0.178592 0.178603 0.178541 0.178473 0.178681 0.179653 0.184665 0.20614 
0.178573 0.178571 0.178566 0.178574 0.178592 0.178604 0.178541 0.178473 0.178676 
0.179613 0.184466 0.205422 0.178573 0.178571 0.178566 0.178574 0.178592 0.178604 
0.178542 0.178473 0.178671 0.179578 0.184291 0.204757 0.178573 0.178571 0.178566 
0.178574 0.178591 0.178605 0.178543 0.178474 0.178666 0.179541 0.184103 0.204023 
0.178573 0.178571 0.178566 0.178574 0.178591 0.178606 0.178544 0.178474 0.178661 
0.179501 0.183906 0.203237 0.178573 0.178571 0.178566 0.178574 0.178591 0.178606 
0.178545 0.178475 0.178654 0.179458 0.183691 0.202353 0.178573 0.178571 0.178566 
0.178573 0.17859 0.178607 0.178546 0.178476 0.178647 0.17941 0.183457 0.20136 
0.178573 0.178571 0.178566 0.178573 0.17859 0.178608 0.178548 0.178478 0.178639 
0.179358 0.183197 0.200224 0.178573 0.178571 0.178566 0.178573 0.178589 0.178609 
0.17855 0.17848 0.178629 0.179299 0.182908 0.198921 0.178573 0.178571 0.178566 
0.178573 0.178588 0.178609 0.178552 0.178483 0.178617 0.179235 0.182586 0.197424 
0.178573 0.178571 0.178566 0.178572 0.178587 0.17861 0.178555 0.178487 0.178604 
0.179163 0.182227 0.195711 0.178573 0.178571 0.178566 0.178572 0.178586 0.17861 
0.178559 0.178492 0.178587 0.179085 0.181828 0.193772 0.178573 0.178571 0.178566 
0.178572 0.178585 0.17861 0.178564 0.178498 0.178568 0.179002 0.18139 0.191625 
0.178573 0.178572 0.178566 0.178571 0.178583 0.178609 0.17857 0.178505 0.178545 
0.178915 0.180919 0.189329 0.178573 0.178572 0.178566 0.178571 0.178582 0.178607 
0.178577 0.178513 0.178519 0.178828 0.180427 0.18708 0.178573 0.178572 0.178566 
0.178571 0.17858 0.178604 0.178585 0.178523 0.178495 0.178747 0.179945 0.185043 
0.178573 0.178572 0.178566 0.17857 0.178578 0.1786 0.178594 0.178532 0.17848 
0.178674 0.179507 0.183243 0.178573 0.178572 0.178566 0.17857 0.178576 0.178595 
0.178602 0.178543 0.178479 0.178605 0.179132 0.181669 0.178573 0.178572 0.178567 
0.178569 0.178574 0.178591 0.178608 0.178557 0.178496 0.178535 0.178843 0.180332 
0.178573 0.178572 0.178567 0.178569 0.178572 0.178586 0.178608 0.178575 0.17852 
0.178482 0.178649 0.179315 0.178573 0.178572 0.178567 0.178568 0.178571 0.17858 
0.178603 0.178595 0.178545 0.178488 0.17853 0.178791 0.178573 0.178572 0.178568 
0.178568 0.17857 0.178575 0.178593 0.178607 0.178573 0.178523 0.178482 0.178566 
0.178573 0.178572 0.178569 0.178568 0.17857 0.178571 0.178582 0.178602 0.178599 
0.178562 0.178512 0.178478 0.178573 0.178573 0.178571 0.178569 0.178569 0.17857 
0.178573 0.178578 0.178589 0.178594 0.178585 0.178555 0.178573 0.178574 0.178577 
0.178571 0.178561 0.178561 0.178598 0.178596 0.178526 0.178592 0.179482 0.18415 
0.178573 0.178574 0.178577 0.178571 0.178561 0.178561 0.178597 0.178597 0.178527 
0.178586 0.179446 0.183962 0.178573 0.178574 0.178577 0.178571 0.178561 0.17856 
0.178597 0.178598 0.178527 0.17858 0.17941 0.183773 0.178573 0.178574 0.178577 
0.178571 0.178561 0.17856 0.178597 0.178599 0.178528 0.178575 0.17938 0.18361 
0.178573 0.178574 0.178577 0.178571 0.178561 0.178559 0.178596 0.1786 0.178529 
0.17857 0.179346 0.18343 0.178573 0.178574 0.178577 0.178572 0.178561 0.178559 
0.178596 0.178601 0.17853 0.178564 0.179311 0.183243 0.178573 0.178574 0.178577 
0.178572 0.178561 0.178559 0.178595 0.178602 0.178531 0.178559 0.179273 0.183036 
0.178573 0.178574 0.178577 0.178572 0.178562 0.178558 0.178594 0.178603 0.178532 
0.178552 0.179231 0.182809 0.178573 0.178574 0.178577 0.178572 0.178562 0.178557 
0.178594 0.178604 0.178534 0.178546 0.179184 0.182557 0.178573 0.178574 0.178577 
0.178572 0.178562 0.178557 0.178593 0.178605 0.178536 0.178539 0.179133 0.182277 
0.178573 0.178574 0.178577 0.178572 0.178562 0.178556 0.178592 0.178606 0.178538 
0.178532 0.179076 0.181965 0.178573 0.178574 0.178577 0.178573 0.178563 0.178555 
0.17859 0.178607 0.178542 0.178526 0.179013 0.181622 0.178573 0.178574 0.178577 
0.178573 0.178564 0.178555 0.178588 0.178608 0.178546 0.178519 0.178945 0.181247 
0.178573 0.178574 0.178577 0.178573 0.178564 0.178554 0.178585 0.178609 0.178552 
0.178514 0.178871 0.180842 0.178573 0.178574 0.178577 0.178574 0.178565 0.178554 
0.178582 0.178609 0.17856 0.178511 0.178792 0.180411 0.178573 0.178574 0.178577 
0.178574 0.178566 0.178554 0.178578 0.178608 0.178569 0.178511 0.178709 0.179971 
0.178573 0.178574 0.178577 0.178574 0.178567 0.178555 0.178574 0.178606 0.17858 
0.178513 0.178626 0.17954 0.178573 0.178574 0.178577 0.178575 0.178569 0.178556 
0.178568 0.178603 0.178592 0.178521 0.178553 0.179161 0.178573 0.178574 0.178577 
0.178575 0.17857 0.178558 0.178563 0.178597 0.178603 0.178536 0.178505 0.178872 
0.178573 0.178574 0.178577 0.178575 0.178571 0.178561 0.178558 0.178591 0.17861 
0.17856 0.178496 0.178659 0.178573 0.178574 0.178576 0.178575 0.178573 0.178564 
0.178555 0.17858 0.178607 0.178589 0.178518 0.17852 0.178573 0.178574 0.178576 
0.178575 0.178574 0.178567 0.178555 0.178567 0.178598 0.178608 0.178559 0.178498 
0.178573 0.178574 0.178576 0.178575 0.178575 0.178571 0.17856 0.178557 0.178582 
0.178607 0.178599 0.178544 0.178573 0.178573 0.178575 0.178575 0.178574 0.178573 
0.178566 0.178556 0.178563 0.178588 0.178607 0.178599 0.178573 0.178573 0.178574 
0.178575 0.178575 0.178574 0.178572 0.178566 0.178561 0.178563 0.178574 0.178587 
0.178573 0.178572 0.178571 0.178575 0.17858 0.178577 0.178559 0.178567 0.178591 
0.178573 0.178698 0.18008 0.178573 0.178572 0.178571 0.178574 0.17858 0.178578 
0.178559 0.178566 0.178591 0.178573 0.178689 0.180017 0.178573 0.178572 0.178571 
0.178574 0.17858 0.178578 0.178559 0.178566 0.178591 0.178574 0.178681 0.179954 
0.178573 0.178572 0.178571 0.178574 0.17858 0.178578 0.178559 0.178565 0.178591 
0.178574 0.178673 0.179901 0.178573 0.178572 0.178571 0.178574 0.17858 0.178578 
0.178559 0.178565 0.178591 0.178574 0.178666 0.179843 0.178573 0.178572 0.178571 
0.178574 0.17858 0.178579 0.178559 0.178564 0.178591 0.178575 0.178658 0.179783 
0.178573 0.178572 0.178571 0.178574 0.17858 0.178579 0.17856 0.178564 0.178591 
0.178575 0.178649 0.179717 0.178573 0.178572 0.178571 0.178574 0.17858 0.178579 
0.17856 0.178563 0.178591 0.178576 0.17864 0.179645 0.178573 0.178572 0.178571 
0.178574 0.17858 0.17858 0.17856 0.178562 0.178591 0.178576 0.17863 0.179566 
0.178573 0.178572 0.178571 0.178574 0.17858 0.17858 0.178561 0.178562 0.17859 
0.178577 0.178619 0.179479 0.178573 0.178572 0.178571 0.178574 0.17858 0.178581 
0.178561 0.178561 0.17859 0.178578 0.178609 0.179383 0.178573 0.178572 0.178571 
0.178574 0.178579 0.178581 0.178562 0.17856 0.178589 0.178579 0.178597 0.179278 
0.178573 0.178572 0.178571 0.178573 0.178579 0.178582 0.178563 0.178559 0.178588 
0.178581 0.178586 0.179166 0.178573 0.178572 0.178571 0.178573 0.178579 0.178583 
0.178564 0.178558 0.178586 0.178583 0.178576 0.179047 0.178573 0.178572 0.178571 
0.178573 0.178578 0.178583 0.178565 0.178557 0.178584 0.178586 0.178568 0.178925 
0.178573 0.178572 0.178571 0.178573 0.178578 0.178583 0.178567 0.178557 0.178581 
0.178589 0.178562 0.178805 0.178573 0.178572 0.178571 0.178572 0.178577 0.178583 
0.178569 0.178556 0.178576 0.178593 0.178562 0.178697 0.178573 0.178572 0.178571 
0.178572 0.178576 0.178583 0.178572 0.178556 0.178571 0.178595 0.178566 0.178616 
0.178573 0.178572 0.178571 0.178572 0.178575 0.178582 0.178576 0.178558 0.178564 
0.178594 0.178576 0.178568 0.178573 0.178572 0.178571 0.178572 0.178574 0.178581 
0.17858 0.17856 0.178558 0.178588 0.17859 0.178551 0.178573 0.178572 0.178571 
0.178572 0.178573 0.178579 0.178582 0.178565 0.178555 0.178574 0.178598 0.178567 
0.178573 0.178572 0.178571 0.178572 0.178572 0.178577 0.178583 0.178573 0.178557 
0.17856 0.178589 0.178594 0.178573 0.178573 0.178571 0.178572 0.178572 0.178575 
0.178581 0.17858 0.178564 0.178554 0.178568 0.178596 0.178573 0.178573 0.178572 
0.178572 0.178572 0.178573 0.178578 0.178582 0.178575 0.178561 0.178555 0.178566 
0.178573 0.178573 0.178572 0.178572 0.178572 0.178573 0.178574 0.178577 0.178579 
0.178576 0.178569 0.178562 0.178573 0.178573 0.178574 0.178572 0.178569 0.178571 
0.178581 0.178576 0.178563 0.178559 0.178632 0.179088 0.178573 0.178573 0.178574 
0.178572 0.178569 0.178571 0.178581 0.178577 0.178563 0.178559 0.178629 0.179064 
0.178573 0.178573 0.178574 0.178572 0.178569 0.178571 0.178581 0.178577 0.178563 
0.178559 0.178627 0.179041 0.178573 0.178573 0.178574 0.178572 0.178569 0.178571 
0.178581 0.178577 0.178563 0.178559 0.178625 0.179021 0.178573 0.178573 0.178574 
0.178572 0.178569 0.178571 0.178581 0.178577 0.178563 0.178559 0.178622 0.178999 
0.178573 0.178573 0.178574 0.178572 0.178569 0.178571 0.178581 0.178578 0.178563 
0.178558 0.17862 0.178977 0.178573 0.178573 0.178574 0.178572 0.178569 0.17857 
0.178581 0.178578 0.178563 0.178558 0.178617 0.178953 0.178573 0.178573 0.178574 
0.178572 0.178569 0.17857 0.178581 0.178578 0.178564 0.178558 0.178614 0.178927 
0.178573 0.178573 0.178574 0.178572 0.178569 0.17857 0.17858 0.178578 0.178564 