# vtk DataFile Version 5.1
vtk output
ASCII
DATASET POLYDATA
POINTS 317 float
2.32609 1.12391 -1.1 2.32459 1.12541 -1.1 2.32179 1.12821 -1.1 
2.31658 1.13342 -1.1 2.30702 1.14298 -1.1 2.16499 1.12391 -0.938899 
2.16349 1.12541 -0.938899 2.16069 1.12821 -0.938899 2.15548 1.13342 -0.938899 
2.29601 1.12391 -1.06992 2.23859 1.12391 -1.0125 2.29601 1.12541 -1.07142 
2.23709 1.12541 -1.0125 2.29601 1.12821 -1.07422 2.23429 1.12821 -1.0125 
2.29601 1.13342 -1.07943 2.22908 1.13342 -1.0125 2.29601 1.14298 -1.08899 
2.21952 1.14298 -1.0125 2.20224 1.16026 -1.0125 2.17204 1.19046 -1.0125 
2.29601 1.15399 -1.1 2.28974 1.16026 -1.1 2.25954 1.19046 -1.1 
2.20967 1.24033 -1.1 2.15285 1.12391 -0.92676 2.10308 1.12391 -0.876993 
2.15285 1.12541 -0.92826 2.10158 1.12541 -0.876993 2.15285 1.12821 -0.93106 
2.09878 1.12821 -0.876993 2.15285 1.13342 -0.93627 2.09357 1.13342 -0.876993 
2.08401 1.14298 -0.876993 2.06673 1.16026 -0.876993 2.15285 1.13605 -0.938899 
2.15285 1.14298 -0.94583 2.14592 1.14298 -0.938899 2.15285 1.16026 -0.96311 
2.12864 1.16026 -0.938899 2.15285 1.19046 -0.99331 2.09844 1.19046 -0.938899 
2.15285 1.20965 -1.0125 2.15285 1.24033 -1.04318 2.12217 1.24033 -1.0125 
2.15285 1.29715 -1.1 2.13451 1.31549 -1.1 2.0072 1.12391 -0.781109 
2.0057 1.12541 -0.781109 2.0029 1.12821 -0.781109 1.99769 1.13342 -0.781109 
1.98813 1.14298 -0.781109 2.0523 1.12391 -0.82621 2.05101 1.12391 -0.824918 
2.0523 1.12541 -0.82771 2.04951 1.12541 -0.824918 2.0523 1.12821 -0.83051 
2.04671 1.12821 -0.824918 2.0523 1.13342 -0.83572 2.0415 1.13342 -0.824918 
2.0523 1.14298 -0.84528 2.03194 1.14298 -0.824918 2.0523 1.16026 -0.86256 
2.01466 1.16026 -0.824918 1.98446 1.19046 -0.824918 2.0523 1.17469 -0.876993 
2.0523 1.19046 -0.89276 2.03653 1.19046 -0.876993 1.98666 1.24033 -0.876993 
2.0523 1.2366 -0.938899 2.0523 1.24033 -0.94263 2.04857 1.24033 -0.938899 
2.0523 1.3102 -1.0125 2.0523 1.31549 -1.01779 2.04701 1.31549 -1.0125 
2.0523 1.3977 -1.1 2.03554 1.41446 -1.1 1.93932 1.12391 -0.713228 
1.93782 1.12541 -0.713228 1.93502 1.12821 -0.713228 1.9816 1.12391 -0.75551 
1.97034 1.12391 -0.744248 1.9816 1.12541 -0.75701 1.96884 1.12541 -0.744248 
1.9816 1.12821 -0.75981 1.96604 1.12821 -0.744248 1.9816 1.13342 -0.76502 
1.96083 1.13342 -0.744248 1.9816 1.14298 -0.77458 1.95127 1.14298 -0.744248 
1.93399 1.16026 -0.744248 1.9816 1.14951 -0.781109 1.9816 1.16026 -0.79186 
1.97085 1.16026 -0.781109 1.9816 1.19046 -0.82206 1.94065 1.19046 -0.781109 
1.9816 1.19332 -0.824918 1.9816 1.24033 -0.87193 1.93459 1.24033 -0.824918 
1.9816 1.24539 -0.876993 1.9816 1.3073 -0.938899 1.9816 1.31549 -0.94709 
1.97341 1.31549 -0.938899 1.9816 1.3809 -1.0125 1.9816 1.41446 -1.04606 
1.94804 1.41446 -1.0125 1.9816 1.4684 -1.1 1.93176 1.12391 -0.70567 
1.91321 1.12391 -0.687115 1.93176 1.12541 -0.70717 1.91171 1.12541 -0.687115 
1.93176 1.12821 -0.70997 1.90891 1.12821 -0.687115 1.9037 1.13342 -0.687115 
1.93176 1.13147 -0.713228 1.93176 1.13342 -0.71518 1.92981 1.13342 -0.713228 
1.93176 1.14298 -0.72474 1.92025 1.14298 -0.713228 1.93176 1.16026 -0.74202 
1.90297 1.16026 -0.713228 1.93176 1.16249 -0.744248 1.93176 1.19046 -0.77222 
1.90379 1.19046 -0.744248 1.93176 1.19935 -0.781109 1.93176 1.24033 -0.82209 
1.93176 1.24316 -0.824918 1.93176 1.29523 -0.876993 1.93176 1.31549 -0.89725 
1.9115 1.31549 -0.876993 1.93176 1.35714 -0.938899 1.93176 1.41446 -0.99622 
1.93176 1.43074 -1.0125 1.93176 1.51824 -1.1 1.92609 1.52391 -1.1 
1.87269 1.12391 -0.646595 1.87119 1.12541 -0.646595 1.89645 1.12391 -0.67036 
1.89121 1.12391 -0.665124 1.89645 1.12541 -0.67186 1.88971 1.12541 -0.665124 
1.89645 1.12821 -0.67466 1.88691 1.12821 -0.665124 1.89645 1.13342 -0.67987 
1.8817 1.13342 -0.665124 1.87214 1.14298 -0.665124 1.89645 1.14067 -0.687115 
1.89645 1.14298 -0.68943 1.89413 1.14298 -0.687115 1.89645 1.16026 -0.70671 
1.87686 1.16026 -0.687115 1.89645 1.16678 -0.713228 1.89645 1.19046 -0.73691 
1.87277 1.19046 -0.713228 1.89645 1.1978 -0.744248 1.89645 1.23466 -0.781109 
1.89645 1.24033 -0.78678 1.89078 1.24033 -0.781109 1.89645 1.27847 -0.824918 
1.89645 1.31549 -0.86194 1.89645 1.33054 -0.876993 1.89645 1.39245 -0.938899 
1.89645 1.41446 -0.96091 1.87444 1.41446 -0.938899 1.89645 1.46605 -1.0125 
1.89645 1.52391 -1.07036 1.89645 1.55355 -1.1 1.87117 1.12391 -0.64508 
1.85706 1.12391 -0.630969 1.87117 1.12541 -0.64658 1.85556 1.12541 -0.630969 
1.85276 1.12821 -0.630969 1.87117 1.12542 -0.646595 1.87117 1.12821 -0.64938 
1.86839 1.12821 -0.646595 1.87117 1.13342 -0.65459 1.86318 1.13342 -0.646595 
1.87117 1.14298 -0.66415 1.85362 1.14298 -0.646595 1.87117 1.14395 -0.665124 
1.87117 1.16026 -0.68143 1.85486 1.16026 -0.665124 1.87117 1.16595 -0.687115 
1.87117 1.19046 -0.71163 1.87117 1.19206 -0.713228 1.87117 1.22308 -0.744248 
1.87117 1.24033 -0.7615 1.85392 1.24033 -0.744248 1.87117 1.25994 -0.781109 
1.87117 1.30375 -0.824918 1.87117 1.31549 -0.83666 1.85943 1.31549 -0.824918 
1.87117 1.35582 -0.876993 1.87117 1.41446 -0.93563 1.87117 1.41773 -0.938899 
1.87117 1.49133 -1.0125 1.87117 1.52391 -1.04508 1.87117 1.57883 -1.1 
1.85271 1.12391 -0.62662 1.84387 1.12391 -0.617779 1.85271 1.12541 -0.62812 
1.84237 1.12541 -0.617779 1.85271 1.12821 -0.63092 1.83957 1.12821 -0.617779 
1.85271 1.12826 -0.630969 1.85271 1.13342 -0.63613 1.84755 1.13342 -0.630969 
1.85271 1.14298 -0.64569 1.85271 1.14389 -0.646595 1.85271 1.16026 -0.66297 
1.85271 1.16241 -0.665124 1.85271 1.18441 -0.687115 1.85271 1.19046 -0.69317 
1.84666 1.19046 -0.687115 1.85271 1.21052 -0.713228 1.85271 1.24033 -0.74304 
1.85271 1.24154 -0.744248 1.85271 1.2784 -0.781109 1.85271 1.31549 -0.8182 
1.85271 1.32221 -0.824918 1.85271 1.37428 -0.876993 1.85271 1.41446 -0.91717 
1.85271 1.43619 -0.938899 1.85271 1.50979 -1.0125 1.85271 1.52391 -1.02662 
1.85271 1.59729 -1.1 1.83874 1.12391 -0.61265 1.83272 1.12391 -0.606626 
1.83874 1.12541 -0.61415 1.83122 1.12541 -0.606626 1.83874 1.12821 -0.61695 
1.82842 1.12821 -0.606626 1.83874 1.12904 -0.617779 1.83874 1.13342 -0.62216 
1.83436 1.13342 -0.617779 1.83874 1.14223 -0.630969 1.83874 1.14298 -0.63172 
1.83799 1.14298 -0.630969 1.83874 1.15786 -0.646595 1.83874 1.16026 -0.649 
1.83634 1.16026 -0.646595 1.83874 1.17638 -0.665124 1.83874 1.19046 -0.6792 
1.83874 1.19837 -0.687115 1.83874 1.22449 -0.713228 1.83874 1.24033 -0.72907 
1.83874 1.25551 -0.744248 1.83874 1.29237 -0.781109 1.83874 1.31549 -0.80423 
1.83874 1.33618 -0.824918 1.83874 1.38825 -0.876993 1.83874 1.41446 -0.9032 
1.83874 1.45016 -0.938899 1.83874 1.52376 -1.0125 1.83874 1.52391 -1.01265 
1.83859 1.52391 -1.0125 1.83874 1.61126 -1.1 1.82747 1.12391 -0.60138 
1.82327 1.12391 -0.597175 1.82747 1.12541 -0.60288 1.82177 1.12541 -0.597175 
1.82747 1.12821 -0.60568 1.81897 1.12821 -0.597175 1.82747 1.12916 -0.606626 
1.82747 1.13342 -0.61089 1.82321 1.13342 -0.606626 1.82747 1.14031 -0.617779 
1.82747 1.14298 -0.62045 1.8248 1.14298 -0.617779 1.82747 1.1535 -0.630969 
1.82747 1.16026 -0.63773 1.82071 1.16026 -0.630969 1.82747 1.16913 -0.646595 
1.82747 1.18765 -0.665124 1.82747 1.19046 -0.66793 1.82466 1.19046 -0.665124 
1.82747 1.20965 -0.687115 1.82747 1.23576 -0.713228 1.82747 1.24033 -0.7178 
1.8229 1.24033 -0.713228 1.82747 1.26678 -0.744248 1.82747 1.30364 -0.781109 
1.82747 1.31549 -0.79296 1.82747 1.34745 -0.824918 1.82747 1.39952 -0.876993 
1.82747 1.41446 -0.89193 1.82747 1.46143 -0.938899 1.82747 1.52391 -1.00138 
1.82747 1.53503 -1.0125 1.82747 1.62253 -1.1 1.82609 1.62391 -1.1 
1.81747 1.12391 -0.59138 1.81747 1.12541 -0.59288 1.81747 1.12821 -0.59568 
1.81747 1.12971 -0.597175 1.81747 1.13342 -0.60089 1.81747 1.13916 -0.606626 
1.81747 1.14298 -0.61045 1.81747 1.15031 -0.617779 1.81747 1.16026 -0.62773 
1.81747 1.1635 -0.630969 1.81747 1.17913 -0.646595 1.81747 1.19046 -0.65793 
1.81747 1.19765 -0.665124 1.81747 1.21965 -0.687115 1.81747 1.24033 -0.7078 
1.81747 1.24576 -0.713228 1.81747 1.27678 -0.744248 1.81747 1.31364 -0.781109 
1.81747 1.31549 -0.78296 1.81747 1.35745 -0.824918 1.81747 1.40952 -0.876993 
1.81747 1.41446 -0.88193 1.81747 1.47143 -0.938899 1.81747 1.52391 -0.99138 
1.81747 1.54503 -1.0125 1.81747 1.62391 -1.09138 
POLYGONS 561 1680
OFFSETS vtktypeint64
0 3 6 9 12 15 18 21 24 
27 30 33 36 39 42 45 48 51 
54 57 60 63 66 69 72 75 78 
81 84 87 90 93 96 99 102 105 
108 111 114 117 120 123 126 129 132 
135 138 141 144 147 150 153 156 159 
162 165 168 171 174 177 180 183 186 
189 192 195 198 201 204 207 210 213 
216 219 222 225 228 231 234 237 240 
243 246 249 252 255 258 261 264 267 
270 273 276 279 282 285 288 291 294 
297 300 303 306 309 312 315 318 321 
324 327 330 333 336 339 342 345 348 
351 354 357 360 363 366 369 372 375 
378 381 384 387 390 393 396 399 402 
405 408 411 414 417 420 423 426 429 
432 435 438 441 444 447 450 453 456 
459 462 465 468 471 474 477 480 483 
486 489 492 495 498 501 504 507 510 
513 516 519 522 525 528 531 534 537 
540 543 546 549 552 555 558 561 564 
567 570 573 576 579 582 585 588 591 
594 597 600 603 606 609 612 615 618 
621 624 627 630 633 636 639 642 645 
648 651 654 657 660 663 666 669 672 
675 678 681 684 687 690 693 696 699 
702 705 708 711 714 717 720 723 726 
729 732 735 738 741 744 747 750 753 
756 759 762 765 768 771 774 777 780 
783 786 789 792 795 798 801 804 807 
810 813 816 819 822 825 828 831 834 
837 840 843 846 849 852 855 858 861 
864 867 870 873 876 879 882 885 888 
891 894 897 900 903 906 909 912 915 
918 921 924 927 930 933 936 939 942 
945 948 951 954 957 960 963 966 969 
972 975 978 981 984 987 990 993 996 
999 1002 1005 1008 1011 1014 1017 1020 1023 
1026 1029 1032 1035 1038 1041 1044 1047 1050 
1053 1056 1059 1062 1065 1068 1071 1074 1077 
1080 1083 1086 1089 1092 1095 1098 1101 1104 
1107 1110 1113 1116 1119 1122 1125 1128 1131 
1134 1137 1140 1143 1146 1149 1152 1155 1158 
1161 1164 1167 1170 1173 1176 1179 1182 1185 
1188 1191 1194 1197 1200 1203 1206 1209 1212 
1215 1218 1221 1224 1227 1230 1233 1236 1239 
1242 1245 1248 1251 1254 1257 1260 1263 1266 
1269 1272 1275 1278 1281 1284 1287 1290 1293 
1296 1299 1302 1305 1308 1311 1314 1317 1320 
1323 1326 1329 1332 1335 1338 1341 1344 1347 
1350 1353 1356 1359 1362 1365 1368 1371 1374 
1377 1380 1383 1386 1389 1392 1395 1398 1401 
1404 1407 1410 1413 1416 1419 1422 1425 1428 
1431 1434 1437 1440 1443 1446 1449 1452 1455 
1458 1461 1464 1467 1470 1473 1476 1479 1482 
1485 1488 1491 1494 1497 1500 1503 1506 1509 
1512 1515 1518 1521 1524 1527 1530 1533 1536 
1539 1542 1545 1548 1551 1554 1557 1560 1563 
1566 1569 1572 1575 1578 1581 1584 1587 1590 
1593 1596 1599 1602 1605 1608 1611 1614 1617 
1620 1623 1626 1629 1632 1635 1638 1641 1644 
1647 1650 1653 1656 1659 1662 1665 1668 1671 
1674 1677 1680 
CONNECTIVITY vtktypeint64
0 11 1 9 11 0 1 13 2 
11 13 1 2 15 3 13 15 2 
3 17 4 15 17 3 17 21 4 
5 27 6 25 27 5 6 29 7 
27 29 6 7 31 8 29 31 7 
31 35 8 6 12 5 12 10 5 
7 14 6 14 12 6 8 16 7 
16 14 7 36 8 35 36 18 8 
18 16 8 18 38 19 36 38 18 
19 40 20 38 40 19 40 42 20 
11 9 10 12 11 10 13 11 12 
14 13 12 15 13 14 16 15 14 
17 15 16 18 17 16 21 17 18 
21 18 22 22 18 19 20 23 19 
23 22 19 43 20 42 43 24 20 
24 23 20 43 45 24 26 54 28 
52 54 26 28 56 30 54 56 28 
30 58 32 56 58 30 32 60 33 
58 60 32 33 62 34 60 62 33 
62 65 34 27 25 26 28 27 26 
29 27 28 30 29 28 31 29 30 
32 31 30 35 31 32 35 32 37 
37 32 33 34 39 33 39 37 33 
66 34 65 66 41 34 41 39 34 
66 69 41 35 37 36 38 36 37 
39 38 37 40 38 39 41 40 39 
42 70 44 40 70 42 40 69 70 
40 41 69 70 72 44 42 44 43 
45 73 46 43 73 45 43 72 73 
43 44 72 73 75 46 47 82 48 
80 82 47 48 84 49 82 84 48 
49 86 50 84 86 49 50 88 51 
86 88 50 88 91 51 48 55 47 
55 53 47 49 57 48 57 55 48 
50 59 49 59 57 49 51 61 50 
61 59 50 92 51 91 92 63 51 
63 61 51 63 94 64 92 94 63 
94 96 64 54 52 53 55 54 53 
56 54 55 57 56 55 58 56 57 
59 58 57 60 58 59 61 60 59 
62 60 61 63 62 61 65 62 63 
65 63 67 67 63 64 97 64 96 
97 68 64 68 67 64 97 99 68 
65 67 66 69 66 67 69 67 71 
71 67 68 100 68 99 71 68 100 
69 71 70 72 101 74 70 101 72 
70 100 101 70 71 100 101 103 74 
72 74 73 75 104 76 73 104 75 
73 103 104 73 74 103 104 106 76 
77 109 78 107 109 77 78 111 79 
109 111 78 111 114 79 78 83 77 
83 81 77 79 85 78 85 83 78 
115 79 114 115 87 79 87 85 79 
87 117 89 115 117 87 89 119 90 
117 119 89 119 121 90 82 80 81 
83 82 81 84 82 83 85 84 83 
86 84 85 87 86 85 88 86 87 
89 88 87 91 88 89 91 89 93 
93 89 90 122 90 121 122 95 90 
95 93 90 122 124 95 91 93 92 
94 92 93 95 94 93 96 125 98 
94 125 96 94 124 125 94 95 124 
125 126 98 96 98 97 98 99 97 
98 126 99 126 127 99 128 102 100 
128 100 127 127 100 99 128 130 102 
100 102 101 103 131 105 101 131 103 
101 130 131 101 102 130 131 132 105 
103 105 104 105 106 104 105 132 106 
132 133 106 108 139 110 137 139 108 
110 141 112 139 141 110 112 143 113 
141 143 112 143 146 113 109 107 108 
110 109 108 111 109 110 112 111 110 
114 111 112 114 112 116 116 112 113 
147 113 146 147 118 113 118 116 113 
118 149 120 147 149 118 149 151 120 
114 116 115 117 115 116 118 117 116 
119 117 118 120 119 118 121 152 123 
119 152 121 119 151 152 119 120 151 
152 154 123 121 123 122 123 124 122 
123 154 124 154 155 124 124 155 156 
125 124 156 156 126 125 158 126 156 
159 129 127 159 127 158 158 127 126 
159 160 129 127 129 128 129 130 128 
129 160 130 160 161 130 130 161 162 
131 130 162 162 132 131 164 132 162 
165 134 133 165 133 164 164 133 132 
165 166 134 135 169 136 167 169 135 
169 172 136 136 140 135 140 138 135 
173 136 172 173 142 136 142 140 136 
142 175 144 173 175 142 144 177 145 
175 177 144 177 179 145 139 137 138 
140 139 138 141 139 140 142 141 140 
143 141 142 144 143 142 146 143 144 
146 144 148 148 144 145 180 145 179 
180 150 145 150 148 145 180 182 150 
146 148 147 149 147 148 150 149 148 
151 183 153 149 183 151 149 182 183 
149 150 182 183 184 153 151 153 152 
153 154 152 153 184 154 184 185 154 
186 157 155 186 155 185 185 155 154 
186 188 157 155 157 156 157 158 156 
157 188 158 188 189 158 158 189 190 
159 158 190 190 160 159 192 160 190 
193 163 161 193 161 192 192 161 160 
193 194 163 161 163 162 163 164 162 
163 194 164 194 195 164 164 195 196 
165 164 196 196 166 165 197 166 196 
168 200 170 198 200 168 170 202 171 
200 202 170 202 204 171 169 167 168 
170 169 168 172 169 170 172 170 174 
174 170 171 205 171 204 205 176 171 
176 174 171 176 207 178 205 207 176 
207 208 178 172 174 173 175 173 174 
176 175 174 177 175 176 178 177 176 
179 209 181 177 209 179 177 208 209 
177 178 208 209 210 181 179 181 180 
181 182 180 181 210 182 210 211 182 
182 211 212 183 182 212 212 184 183 
214 184 212 215 187 185 215 185 214 
214 185 184 215 216 187 185 187 186 
187 188 186 187 216 188 216 217 188 
218 191 189 218 189 217 217 189 188 
218 219 191 189 191 190 191 192 190 
191 219 192 219 220 192 192 220 221 
193 192 221 221 194 193 222 194 221 
194 222 195 222 223 195 195 223 224 
196 195 224 224 197 196 225 197 224 
199 228 201 226 228 199 201 230 203 
228 230 201 230 232 203 200 198 199 
201 200 199 202 200 201 203 202 201 
204 233 206 202 233 204 202 232 233 
202 203 232 233 235 206 204 206 205 
206 235 236 206 236 205 205 236 207 
236 208 207 238 208 236 208 238 239 
209 208 239 239 210 209 241 210 239 
242 213 211 242 211 241 241 211 210 
242 243 213 211 213 212 213 214 212 
213 243 214 243 244 214 214 244 245 
215 214 245 245 216 215 246 216 245 
216 246 217 246 247 217 217 247 248 
218 217 248 248 219 218 249 219 248 
219 249 220 249 250 220 220 250 251 
221 220 251 251 222 221 252 222 251 
222 252 223 252 253 223 223 253 254 
224 223 254 254 225 224 256 225 254 
227 259 229 257 259 227 229 261 231 
259 261 229 261 263 231 228 226 227 
229 228 227 230 228 229 231 230 229 
232 264 234 230 264 232 230 263 264 
230 231 263 264 266 234 232 234 233 
235 267 237 233 267 235 233 266 267 
233 234 266 267 269 237 235 237 236 
238 270 240 236 270 238 236 269 270 
236 237 269 270 272 240 238 240 239 
240 241 239 240 272 241 272 273 241 
241 273 274 242 241 274 274 243 242 
276 243 274 243 276 244 276 277 244 
244 277 278 245 244 278 278 246 245 
280 246 278 246 280 247 280 281 247 
247 281 282 248 247 282 282 249 248 
283 249 282 249 283 250 283 284 250 
250 284 285 251 250 285 285 252 251 
286 252 285 287 255 253 287 253 286 
286 253 252 287 288 255 253 255 254 
255 256 254 255 288 256 288 289 256 
258 292 260 291 292 258 260 293 262 
292 293 260 293 294 262 259 257 258 
260 259 258 261 259 260 262 261 260 
263 295 265 261 295 263 261 294 295 
261 262 294 295 296 265 263 265 264 
266 297 268 264 297 266 264 296 297 
264 265 296 297 298 268 266 268 267 
269 299 271 267 299 269 267 298 299 
267 268 298 299 300 271 269 271 270 
271 272 270 271 300 272 300 301 272 
302 275 273 302 273 301 301 273 272 
302 303 275 273 275 274 275 276 274 
275 303 276 303 304 276 305 279 277 
305 277 304 304 277 276 305 306 279 
277 279 278 279 280 278 279 306 280 
306 307 280 280 307 281 307 308 281 
281 308 309 282 281 309 309 283 282 
310 283 309 283 310 284 310 311 284 
284 311 312 285 284 312 312 286 285 
313 286 312 286 313 314 287 286 314 
314 288 287 315 288 314 316 290 289 
316 289 315 315 289 288 
POINT_DATA 317
FIELD FieldData 5
pressure 1 317 float
0.175113 0.175187 0.175284 0.175449 0.175768 0.203333 0.204257 0.205896 0.20895 
0.170002 0.179095 0.170348 0.179783 0.170951 0.181042 0.172036 0.183369 0.17399 
0.187795 0.196226 0.212 0.176174 0.177321 0.183296 0.194472 0.206486 0.221318 
0.207025 0.222302 0.207957 0.224058 0.209654 0.227298 0.233223 0.243924 0.210533 
0.21183 0.214186 0.214854 0.223119 0.219919 0.238745 0.223076 0.220365 0.237073 
0.20755 0.207014 0.245973 0.247148 0.248944 0.25243 0.2587 0.236329 0.236655 
0.236911 0.237617 0.237811 0.239219 0.239469 0.242168 0.242527 0.247551 0.248074 
0.257098 0.273423 0.252781 0.255082 0.259383 0.281314 0.26383 0.264207 0.264986 
0.259419 0.256109 0.256657 0.187809 0.183904 0.263479 0.265136 0.267709 0.249403 
0.251649 0.250342 0.252868 0.251762 0.254874 0.254543 0.258667 0.259567 0.26566 
0.278297 0.262995 0.265907 0.267714 0.274157 0.281076 0.274981 0.282628 0.288955 
0.283155 0.262614 0.256871 0.253958 0.19745 0.183751 0.181864 0.178623 0.265665 
0.269721 0.266892 0.271263 0.268637 0.273594 0.278172 0.270744 0.271297 0.271886 
0.274061 0.277579 0.279251 0.288143 0.279993 0.284014 0.292223 0.285434 0.289601 
0.289364 0.268532 0.247462 0.238742 0.201246 0.180244 0.179307 0.178569 0.178576 
0.28367 0.285746 0.275215 0.276155 0.276306 0.277528 0.277654 0.279421 0.280534 
0.283362 0.290736 0.284599 0.285266 0.285625 0.290305 0.293483 0.292243 0.294605 
0.299481 0.295541 0.297905 0.297664 0.299112 0.277701 0.234104 0.214602 0.181445 
0.17907 0.178739 0.178578 0.178578 0.178571 0.284535 0.289835 0.285755 0.291598 
0.294979 0.285765 0.286567 0.287643 0.288196 0.291371 0.291194 0.298694 0.291531 
0.295038 0.299672 0.296095 0.299732 0.299988 0.302664 0.302582 0.30406 0.29303 
0.23999 0.22358 0.21685 0.189011 0.178708 0.178656 0.178571 0.178565 0.178573 
0.292397 0.295397 0.293323 0.297048 0.29501 0.299708 0.295036 0.296562 0.298583 
0.299204 0.299424 0.300657 0.300726 0.301326 0.301832 0.302944 0.30387 0.304168 
0.303616 0.272333 0.21439 0.206426 0.181565 0.178714 0.178599 0.178574 0.178577 
0.178572 0.297123 0.298552 0.29837 0.30031 0.300005 0.30256 0.300501 0.302021 
0.303221 0.304982 0.305121 0.30536 0.307001 0.306983 0.308044 0.305979 0.305503 
0.305528 0.306424 0.306015 0.294994 0.247983 0.210307 0.191796 0.179531 0.178655 
0.178564 0.178573 0.178573 0.178573 0.178574 0.300308 0.301041 0.301642 0.302782 
0.302892 0.304661 0.303434 0.305193 0.306072 0.30742 0.308075 0.308621 0.310366 
0.311143 0.312954 0.311685 0.310686 0.310571 0.311829 0.30952 0.308347 0.307979 
0.308999 0.28233 0.22466 0.206014 0.185243 0.17888 0.178614 0.178566 0.178574 
0.178575 0.178573 0.178573 0.302309 0.303763 0.305071 0.305915 0.307502 0.309334 
0.310319 0.311771 0.313617 0.314079 0.31555 0.31519 0.314362 0.31222 0.310276 
0.305776 0.26755 0.204102 0.201411 0.182173 0.178653 0.178597 0.178565 0.178574 
0.178574 0.178573 
velocity_u 1 317 float
0.99602 0.995938 0.99594 0.995893 0.995441 0.971737 0.970892 0.969211 0.966051 
1.00193 0.993941 1.00159 0.993282 1.001 0.992088 0.999879 0.98992 0.997555 
0.985726 0.977081 0.961013 0.994662 0.993332 0.98673 0.97457 0.969013 0.956252 
0.968486 0.955265 0.96743 0.953543 0.965442 0.950241 0.944834 0.93528 0.964569 
0.963327 0.961322 0.960253 0.953377 0.953883 0.937725 0.949947 0.951273 0.937136 
0.960684 0.962655 0.931965 0.930963 0.929204 0.926328 0.921046 0.940872 0.940566 
0.940359 0.939702 0.939555 0.938254 0.938022 0.93561 0.935626 0.93122 0.930949 
0.921904 0.903932 0.925936 0.922663 0.918851 0.895982 0.912073 0.911673 0.910875 
0.91744 0.920773 0.920264 0.990103 0.994208 0.916383 0.914761 0.912367 0.928381 
0.926495 0.927441 0.925157 0.92631 0.923654 0.924323 0.920755 0.920208 0.914356 
0.898748 0.916287 0.912681 0.910381 0.903178 0.895467 0.902354 0.894645 0.887012 
0.894334 0.914383 0.92026 0.923067 0.980808 0.994709 0.996642 0.999943 0.914371 
0.910386 0.91319 0.90892 0.91149 0.90634 0.901549 0.909488 0.908967 0.908412 
0.906027 0.902447 0.897713 0.887857 0.896944 0.892341 0.884106 0.891126 0.886383 
0.886603 0.907853 0.928886 0.937595 0.976384 0.998293 0.999256 1 0.999997 
0.894187 0.891503 0.904477 0.903349 0.903409 0.901878 0.901687 0.899427 0.898758 
0.895026 0.885791 0.89443 0.893643 0.893089 0.885236 0.880297 0.883469 0.881462 
0.875288 0.880881 0.879159 0.879236 0.877969 0.898074 0.942189 0.962257 0.997039 
0.999495 0.999832 0.999994 0.999995 1 0.893105 0.885719 0.891492 0.8832 
0.879753 0.891482 0.890424 0.889121 0.888896 0.884995 0.885195 0.875749 0.884734 
0.878151 0.872295 0.877352 0.874903 0.874777 0.873676 0.873913 0.871544 0.883594 
0.935509 0.952306 0.959154 0.989026 0.999863 0.999916 1 1.00001 0.999998 
0.882456 0.877865 0.881073 0.875862 0.879716 0.87283 0.879694 0.878506 0.875763 
0.875146 0.874857 0.871191 0.871185 0.871507 0.871339 0.869948 0.870749 0.871368 
0.871959 0.903381 0.961671 0.970091 0.996876 0.999858 0.999973 0.999999 0.999996 
0.999999 0.874761 0.871673 0.873675 0.869896 0.872321 0.867045 0.871935 0.870699 
0.868575 0.867777 0.867571 0.867232 0.86473 0.864412 0.863276 0.865911 0.867069 
0.867682 0.868134 0.868928 0.880282 0.927431 0.965772 0.985768 0.999003 0.999916 
1.00001 1 1 1 0.999999 0.868836 0.867194 0.867885 0.865624 
0.86651 0.862805 0.866101 0.864971 0.863086 0.862866 0.862179 0.861025 0.860656 
0.859536 0.85713 0.859716 0.861763 0.862014 0.860751 0.864186 0.866104 0.866583 
0.865408 0.892816 0.950992 0.970094 0.992803 0.999677 0.999959 1.00001 1 
0.999998 1 1 0.864308 0.863445 0.861922 0.861416 0.860343 0.858702 
0.857723 0.856854 0.855806 0.855932 0.856082 0.857271 0.858534 0.861777 0.864009 
0.868656 0.907605 0.97218 0.974949 0.99607 0.999915 0.999975 1.00001 0.999999 
0.999999 1 
velocity_v 1 317 float
-0.00829163 -0.00814781 -0.00800659 -0.00774343 -0.00726164 0.00725686 0.00821305 0.00989033 0.0130187 
-0.0145506 -0.0118167 -0.0140582 -0.0110696 -0.0133031 -0.00994049 -0.0119139 -0.00778132 -0.00943845 
-0.00373597 0.00419584 0.0189492 -0.00665753 -0.00540043 0.00111182 0.0131751 0.0113438 0.024944 
0.0118139 0.0258442 0.012561 0.0273298 0.0139249 0.0300298 0.0349606 0.0438943 0.0146012 
0.0162077 0.0182384 0.0199648 0.027221 0.0257698 0.0421155 0.0294449 0.031778 0.0442837 
0.0260114 0.026407 0.0511485 0.0516599 0.0530663 0.0553737 0.0597961 0.0393845 0.039741 
0.0398069 0.0405738 0.0404854 0.0420193 0.0416276 0.044581 0.0437758 0.049328 0.0477878 
0.0579768 0.0725753 0.0509383 0.0542076 0.0587153 0.0838268 0.0626635 0.0632799 0.064567 
0.0643134 0.0620322 0.063166 0.0101964 0.00590374 0.0651667 0.0658967 0.0673691 0.0571691 
0.0594499 0.0573175 0.0600331 0.057995 0.061302 0.0590287 0.0635379 0.0612119 0.0678377 
0.076019 0.0627173 0.0653095 0.0674199 0.0731207 0.0804435 0.073924 0.0851487 0.0952646 
0.0857709 0.0839283 0.0795242 0.0766686 0.0217356 0.00587117 0.00368826 0.000142527 0.0665708 
0.0695704 0.0669867 0.070055 0.0679647 0.0714272 0.0737935 0.0689266 0.0694385 0.0698266 
0.0720572 0.0744227 0.0765511 0.0828785 0.0770921 0.0826532 0.0900715 0.0851909 0.0960114 
0.0961176 0.0888359 0.0716545 0.0630449 0.0258909 0.00194491 0.000820122 -7.34889e-06 5.42371e-07 
0.0720873 0.0731423 0.0710236 0.0715878 0.0713935 0.072207 0.0726463 0.0739265 0.0746098 
0.0769339 0.0829655 0.0773578 0.0781603 0.0786544 0.0840596 0.088229 0.0862068 0.0920262 
0.0986179 0.0941993 0.103616 0.104531 0.105999 0.0927292 0.057024 0.0393346 0.00346991 
0.000618238 0.000226452 1.76569e-05 5.74414e-06 -1.91381e-06 0.0722289 0.0737714 0.073144 0.0752664 
0.0774265 0.0731522 0.0748961 0.0753647 0.0779621 0.0795626 0.0831355 0.0874612 0.0835852 
0.0897386 0.0946008 0.0915565 0.0990366 0.0995461 0.107049 0.110379 0.11359 0.104848 
0.0639708 0.0487499 0.0424715 0.0125412 0.000191809 0.000127404 -1.15658e-06 -9.40433e-06 3.02483e-06 
0.073811 0.0765245 0.0753167 0.078393 0.0774287 0.0816314 0.0774686 0.0814494 0.0835078 
0.0876862 0.088209 0.0953686 0.0961507 0.102243 0.103979 0.105861 0.109036 0.11386 
0.113497 0.0908167 0.0398662 0.0319777 0.00367345 0.000195755 4.75398e-05 -8.25547e-07 3.17752e-06 
-4.03045e-06 0.0767869 0.0776775 0.0785763 0.0795349 0.0817328 0.0834235 0.0826167 0.0865029 
0.087644 0.0935017 0.0938863 0.0942225 0.100002 0.100822 0.101809 0.105799 0.10934 
0.110629 0.115164 0.116764 0.108605 0.0704389 0.0354728 0.015574 0.00118647 0.000117551 
-8.72468e-06 6.42259e-07 6.42465e-07 6.65693e-07 2.70888e-06 0.0775111 0.0777759 0.0794272 0.0798738 
0.0834482 0.0846472 0.0846069 0.0888461 0.089808 0.0960227 0.0980462 0.0991921 0.104072 
0.106271 0.109887 0.108695 0.113401 0.114099 0.115195 0.116528 0.119604 0.119639 
0.121056 0.0989431 0.0488545 0.0310889 0.00807296 0.000393201 7.28326e-05 -6.93657e-06 5.6928e-07 
2.10897e-06 -1.87393e-06 -1.50743e-06 0.078254 0.0804769 0.0849867 0.08694 0.0911958 0.098145 
0.101954 0.107238 0.111572 0.112477 0.115939 0.118443 0.119065 0.120911 0.122545 
0.119201 0.0866469 0.0288076 0.0261826 0.00439817 0.000115977 4.90769e-05 -1.10233e-05 1.10459e-06 
3.75501e-07 7.35264e-07 
velocity_w 1 317 float
-0.111109 -0.111248 -0.111705 -0.112412 -0.113821 -0.0991503 -0.0997243 -0.100852 -0.10226 
-0.104237 -0.103917 -0.104788 -0.104431 -0.105928 -0.105522 -0.107776 -0.10702 -0.111299 
-0.109703 -0.114454 -0.121939 -0.115501 -0.117473 -0.125363 -0.133895 -0.0976416 -0.0909678 
-0.0983787 -0.0913007 -0.0998405 -0.0922346 -0.101928 -0.0938527 -0.0960036 -0.10053 -0.102822 
-0.104665 -0.103033 -0.110023 -0.104184 -0.119727 -0.105811 -0.124973 -0.129635 -0.115785 
-0.134101 -0.115704 -0.0932677 -0.0941473 -0.0955397 -0.0981207 -0.102781 -0.0915785 -0.091534 
-0.0920238 -0.0919494 -0.09294 -0.0928039 -0.0946038 -0.0943757 -0.096841 -0.0966403 -0.101161 
-0.101744 -0.109292 -0.104257 -0.105685 -0.104662 -0.105657 -0.108311 -0.107759 -0.107653 
-0.0855217 -0.0820608 -0.081165 -0.0193951 -0.0113973 -0.10165 -0.102835 -0.104731 -0.0977665 
-0.0989232 -0.0982628 -0.0995388 -0.0990069 -0.100571 -0.100568 -0.1026 -0.103768 -0.106871 
-0.116857 -0.10658 -0.108334 -0.110082 -0.109877 -0.115125 -0.110018 -0.106386 -0.112016 
-0.105547 -0.0800472 -0.0736993 -0.0704043 -0.0187248 -0.00556636 -0.00355459 -9.31194e-06 -0.102842 
-0.106083 -0.103872 -0.107641 -0.105284 -0.109641 -0.113455 -0.106944 -0.107455 -0.10754 
-0.110303 -0.110977 -0.117281 -0.119301 -0.117779 -0.116832 -0.117314 -0.116406 -0.112324 
-0.111625 -0.0798973 -0.060026 -0.0522213 -0.019493 -0.00160671 -0.000775619 7.16064e-06 -1.45579e-07 
-0.124467 -0.126654 -0.114892 -0.116494 -0.115844 -0.117958 -0.116491 -0.119534 -0.117521 
-0.122348 -0.128465 -0.11937 -0.119523 -0.120181 -0.121801 -0.12746 -0.121392 -0.118336 
-0.121546 -0.117102 -0.111426 -0.11045 -0.10983 -0.0903608 -0.0477251 -0.0309198 -0.0023847 
-0.000399725 -0.000119239 1.21924e-05 -5.22025e-06 4.70341e-06 -0.125142 -0.128368 -0.126661 -0.130496 
-0.132892 -0.126669 -0.126969 -0.127531 -0.127349 -0.128992 -0.12894 -0.132814 -0.129159 
-0.12977 -0.133015 -0.128756 -0.122 -0.12146 -0.11335 -0.109681 -0.111292 -0.0983537 
-0.0533341 -0.0384881 -0.0326837 -0.00865891 -9.09612e-05 -4.90042e-05 1.95965e-06 6.86114e-06 -3.87578e-06 
-0.131325 -0.135636 -0.132506 -0.13769 -0.132928 -0.13958 -0.132933 -0.132894 -0.134345 
-0.1332 -0.133213 -0.133479 -0.132984 -0.127507 -0.125655 -0.126229 -0.118853 -0.111365 
-0.110691 -0.0782577 -0.0302773 -0.0236764 -0.0024135 -0.000111799 -2.31714e-05 -8.18162e-07 -3.37734e-06 
2.27721e-06 -0.139796 -0.143805 -0.140666 -0.145546 -0.140267 -0.147234 -0.140173 -0.13936 
-0.141639 -0.1373 -0.137205 -0.137397 -0.134074 -0.133871 -0.133956 -0.129142 -0.126161 
-0.123869 -0.115764 -0.111266 -0.100279 -0.0574753 -0.0266849 -0.0111837 -0.000782427 -6.67724e-05 
1.32662e-05 1.07257e-06 1.07619e-06 1.0431e-06 -1.52076e-06 -0.148657 -0.151824 -0.148959 -0.152993 
-0.148132 -0.154741 -0.147902 -0.146767 -0.149609 -0.14374 -0.14277 -0.144039 -0.13741 
-0.135563 -0.13742 -0.131316 -0.125769 -0.125224 -0.124867 -0.120271 -0.112236 -0.110827 
-0.110727 -0.0880734 -0.0381529 -0.0231038 -0.0055689 -0.000250017 -2.64139e-05 6.30395e-06 -2.29219e-08 
-1.60457e-06 9.99381e-07 8.2166e-07 -0.157929 -0.15729 -0.156359 -0.155688 -0.154425 -0.151058 
-0.148997 -0.143364 -0.138741 -0.136516 -0.128524 -0.124685 -0.122217 -0.116899 -0.110625 
-0.106412 -0.0744836 -0.0216301 -0.0194724 -0.00295101 -6.42583e-05 -1.75191e-05 6.64022e-06 -6.38752e-07 
1.01883e-07 -2.3919e-07 
temperature 1 317 float
0.178294 0.178298 0.178272 0.178262 0.178358 0.185357 0.185612 0.186064 0.186909 
0.176782 0.178926 0.17686 0.179097 0.176988 0.179399 0.177258 0.179982 0.177832 
0.181115 0.183388 0.18758 0.178534 0.178879 0.180594 0.183755 0.186229 0.189907 
0.186387 0.190183 0.186642 0.190625 0.187107 0.191472 0.19284 0.195346 0.187313 
0.187591 0.188171 0.188299 0.190299 0.189641 0.194158 0.190503 0.190061 0.193977 
0.187405 0.187219 0.19623 0.196474 0.196841 0.197527 0.198703 0.194081 0.194159 
0.194205 0.194371 0.194364 0.194692 0.194722 0.195337 0.195227 0.196321 0.19645 