# vtk DataFile Version 5.1
vtk output
ASCII
DATASET STRUCTURED_GRID
DIMENSIONS 37 13 24
POINTS 11544 float
5.1398 0.336217 -0.148191 5.13984 0.352572 -0.148191 5.1399 0.37094 -0.148191 
5.13995 0.391428 -0.148191 5.14002 0.414112 -0.148191 5.14008 0.439017 -0.148191 
5.14016 0.466109 -0.148191 5.14024 0.495286 -0.148191 5.14033 0.526368 -0.148191 
5.14042 0.559096 -0.148191 5.14051 0.593138 -0.148191 5.14061 0.628095 -0.148191 
5.14071 0.663523 -0.148191 5.1408 0.698951 -0.148191 5.1409 0.733909 -0.148191 
5.14099 0.767953 -0.148191 5.14109 0.800683 -0.148191 5.14117 0.831768 -0.148191 
5.14125 0.860947 -0.148191 5.14133 0.888042 -0.148191 5.1414 0.912948 -0.148191 
5.14146 0.935633 -0.148191 5.14152 0.956122 -0.148191 5.14157 0.97449 -0.148191 
5.14161 0.990846 -0.148191 5.14165 1.00532 -0.148191 5.14169 1.01807 -0.148191 
5.14172 1.02924 -0.148191 5.14175 1.039 -0.148191 5.14177 1.04748 -0.148191 
5.14179 1.05484 -0.148191 5.14181 1.06121 -0.148191 5.14183 1.0667 -0.148191 
5.14184 1.07143 -0.148191 5.14185 1.07551 -0.148191 5.14186 1.079 -0.148191 
5.14187 1.082 -0.148191 5.18011 0.330529 -0.148191 5.18015 0.346978 -0.148191 
5.1802 0.365459 -0.148191 5.18026 0.386085 -0.148191 5.18032 0.40893 -0.148191 
5.18039 0.434024 -0.148191 5.18046 0.461333 -0.148191 5.18053 0.490755 -0.148191 
5.18062 0.522107 -0.148191 5.1807 0.55513 -0.148191 5.18079 0.589484 -0.148191 
5.18088 0.624768 -0.148191 5.18098 0.660529 -0.148191 5.18107 0.696291 -0.148191 
5.18116 0.731576 -0.148191 5.18125 0.765932 -0.148191 5.18134 0.798957 -0.148191 
5.18142 0.830312 -0.148191 5.1815 0.859735 -0.148191 5.18157 0.887046 -0.148191 
5.18164 0.912142 -0.148191 5.1817 0.934989 -0.148191 5.18175 0.955615 -0.148191 
5.1818 0.974096 -0.148191 5.18184 0.990545 -0.148191 5.18188 1.0051 -0.148191 
5.18192 1.0179 -0.148191 5.18195 1.02912 -0.148191 5.18197 1.03891 -0.148191 
5.182 1.04743 -0.148191 5.18202 1.05481 -0.148191 5.18203 1.06119 -0.148191 
5.18205 1.06669 -0.148191 5.18206 1.07143 -0.148191 5.18207 1.0755 -0.148191 
5.18208 1.079 -0.148191 5.18209 1.082 -0.148191 5.22045 0.324838 -0.148191 
5.22049 0.34138 -0.148191 5.22054 0.359975 -0.148191 5.22059 0.380737 -0.148191 
5.22065 0.403745 -0.148191 5.22071 0.429028 -0.148191 5.22078 0.456554 -0.148191 
5.22085 0.48622 -0.148191 5.22093 0.517844 -0.148191 5.22101 0.55116 -0.148191 
5.22109 0.585828 -0.148191 5.22118 0.621439 -0.148191 5.22127 0.657534 -0.148191 
5.22136 0.693629 -0.148191 5.22144 0.72924 -0.148191 5.22153 0.76391 -0.148191 
5.22161 0.797228 -0.148191 5.22169 0.828854 -0.148191 5.22176 0.858522 -0.148191 
5.22183 0.88605 -0.148191 5.22189 0.911335 -0.148191 5.22195 0.934344 -0.148191 
5.222 0.955107 -0.148191 5.22204 0.973702 -0.148191 5.22209 0.990244 -0.148191 
5.22212 1.00487 -0.148191 5.22216 1.01774 -0.148191 5.22218 1.029 -0.148191 
5.22221 1.03883 -0.148191 5.22223 1.04737 -0.148191 5.22225 1.05477 -0.148191 
5.22226 1.06116 -0.148191 5.22228 1.06668 -0.148191 5.22229 1.07142 -0.148191 
5.2223 1.0755 -0.148191 5.22231 1.079 -0.148191 5.22232 1.082 -0.148191 
5.26081 0.319143 -0.148191 5.26085 0.335779 -0.148191 5.26089 0.354487 -0.148191 
5.26094 0.375387 -0.148191 5.26099 0.398557 -0.148191 5.26105 0.424029 -0.148191 
5.26112 0.451772 -0.148191 5.26118 0.481683 -0.148191 5.26125 0.513577 -0.148191 
5.26133 0.547189 -0.148191 5.26141 0.58217 -0.148191 5.26149 0.618107 -0.148191 
5.26157 0.654536 -0.148191 5.26166 0.690965 -0.148191 5.26174 0.726903 -0.148191 
5.26182 0.761886 -0.148191 5.26189 0.795499 -0.148191 5.26196 0.827396 -0.148191 
5.26203 0.857309 -0.148191 5.2621 0.885054 -0.148191 5.26216 0.910527 -0.148191 
5.26221 0.933698 -0.148191 5.26226 0.954598 -0.148191 5.2623 0.973307 -0.148191 
5.26234 0.989942 -0.148191 5.26237 1.00464 -0.148191 5.2624 1.01757 -0.148191 
5.26243 1.02889 -0.148191 5.26245 1.03875 -0.148191 5.26247 1.04732 -0.148191 
5.26249 1.05473 -0.148191 5.2625 1.06114 -0.148191 5.26251 1.06667 -0.148191 
5.26253 1.07142 -0.148191 5.26253 1.0755 -0.148191 5.26254 1.079 -0.148191 
5.26255 1.082 -0.148191 5.3012 0.313445 -0.148191 5.30123 0.330174 -0.148191 
5.30127 0.348996 -0.148191 5.30131 0.370033 -0.148191 5.30136 0.393365 -0.148191 
5.30142 0.419027 -0.148191 5.30147 0.446987 -0.148191 5.30154 0.477143 -0.148191 
5.3016 0.509309 -0.148191 5.30167 0.543215 -0.148191 5.30174 0.57851 -0.148191 
5.30182 0.614774 -0.148191 5.3019 0.651537 -0.148191 5.30197 0.6883 -0.148191 
5.30205 0.724565 -0.148191 5.30212 0.759862 -0.148191 5.30219 0.793769 -0.148191 
5.30226 0.825936 -0.148191 5.30232 0.856094 -0.148191 5.30237 0.884056 -0.148191 
5.30243 0.909719 -0.148191 5.30248 0.933053 -0.148191 5.30252 0.954089 -0.148191 
5.30256 0.972912 -0.148191 5.3026 0.989641 -0.148191 5.30263 1.00442 -0.148191 
5.30265 1.01741 -0.148191 5.30268 1.02877 -0.148191 5.3027 1.03866 -0.148191 
5.30272 1.04726 -0.148191 5.30273 1.0547 -0.148191 5.30275 1.06112 -0.148191 
5.30276 1.06665 -0.148191 5.30277 1.07141 -0.148191 5.30278 1.0755 -0.148191 
5.30278 1.079 -0.148191 5.30279 1.082 -0.148191 5.3416 0.307745 -0.148191 
5.34163 0.324566 -0.148191 5.34167 0.343503 -0.148191 5.3417 0.364676 -0.148191 
5.34175 0.388171 -0.148191 5.3418 0.414022 -0.148191 5.34185 0.4422 -0.148191 
5.3419 0.472601 -0.148191 5.34196 0.505038 -0.148191 5.34203 0.539239 -0.148191 
5.34209 0.574847 -0.148191 5.34216 0.611439 -0.148191 5.34223 0.648536 -0.148191 
5.3423 0.685633 -0.148191 5.34237 0.722226 -0.148191 5.34243 0.757836 -0.148191 
5.34249 0.792037 -0.148191 5.34255 0.824476 -0.148191 5.34261 0.854879 -0.148191 
5.34266 0.883058 -0.148191 5.34271 0.90891 -0.148191 5.34275 0.932406 -0.148191 
5.34279 0.95358 -0.148191 5.34283 0.972517 -0.148191 5.34286 0.989339 -0.148191 
5.34289 1.00419 -0.148191 5.34291 1.01724 -0.148191 5.34294 1.02865 -0.148191 
5.34295 1.03858 -0.148191 5.34297 1.0472 -0.148191 5.34299 1.05466 -0.148191 
5.343 1.0611 -0.148191 5.34301 1.06664 -0.148191 5.34302 1.07141 -0.148191 
5.34302 1.0755 -0.148191 5.34303 1.079 -0.148191 5.34304 1.082 -0.148191 
5.38202 0.302041 -0.148191 5.38205 0.318956 -0.148191 5.38208 0.338007 -0.148191 
5.38211 0.359318 -0.148191 5.38215 0.382975 -0.148191 5.38219 0.409016 -0.148191 
5.38224 0.437411 -0.148191 5.38229 0.468057 -0.148191 5.38234 0.500766 -0.148191 
5.3824 0.535261 -0.148191 5.38245 0.571184 -0.148191 5.38251 0.608103 -0.148191 
5.38258 0.645534 -0.148191 5.38264 0.682965 -0.148191 5.3827 0.719885 -0.148191 
5.38275 0.755809 -0.148191 5.38281 0.790305 -0.148191 5.38286 0.823015 -0.148191 
5.38291 0.853663 -0.148191 5.38296 0.88206 -0.148191 5.383 0.908101 -0.148191 
5.38304 0.93176 -0.148191 5.38307 0.953071 -0.148191 5.38311 0.972121 -0.148191 
5.38313 0.989037 -0.148191 5.38316 1.00397 -0.148191 5.38318 1.01707 -0.148191 
5.3832 1.02853 -0.148191 5.38321 1.0385 -0.148191 5.38323 1.04715 -0.148191 
5.38324 1.05463 -0.148191 5.38325 1.06108 -0.148191 5.38326 1.06663 -0.148191 
5.38327 1.0714 -0.148191 5.38328 1.0755 -0.148191 5.38328 1.079 -0.148191 
5.38329 1.082 -0.148191 5.42245 0.296335 -0.148191 5.42248 0.313344 -0.148191 
5.4225 0.332509 -0.148191 5.42253 0.353957 -0.148191 5.42256 0.377777 -0.148191 
5.4226 0.404007 -0.148191 5.42264 0.43262 -0.148191 5.42268 0.463511 -0.148191 
5.42273 0.496491 -0.148191 5.42278 0.531281 -0.148191 5.42283 0.567518 -0.148191 
5.42288 0.604765 -0.148191 5.42293 0.642531 -0.148191 5.42298 0.680297 -0.148191 
5.42304 0.717544 -0.148191 5.42309 0.753781 -0.148191 5.42313 0.788572 -0.148191 
5.42318 0.821554 -0.148191 5.42322 0.852447 -0.148191 5.42326 0.881061 -0.148191 
5.4233 0.907292 -0.148191 5.42333 0.931112 -0.148191 5.42336 0.952561 -0.148191 
5.42339 0.971726 -0.148191 5.42341 0.988734 -0.148191 5.42343 1.00374 -0.148191 
5.42345 1.01691 -0.148191 5.42347 1.02841 -0.148191 5.42348 1.03841 -0.148191 
5.42349 1.04709 -0.148191 5.42351 1.05459 -0.148191 5.42351 1.06106 -0.148191 
5.42352 1.06662 -0.148191 5.42353 1.0714 -0.148191 5.42353 1.07549 -0.148191 
5.42354 1.079 -0.148191 5.42354 1.082 -0.148191 5.4629 0.290628 -0.148191 
5.46292 0.30773 -0.148191 5.46294 0.327009 -0.148191 5.46296 0.348594 -0.148191 
5.46299 0.372577 -0.148191 5.46302 0.398997 -0.148191 5.46305 0.427827 -0.148191 
5.46309 0.458964 -0.148191 5.46313 0.492216 -0.148191 5.46317 0.527301 -0.148191 
5.46321 0.563852 -0.148191 5.46325 0.601426 -0.148191 5.4633 0.639526 -0.148191 
5.46334 0.677627 -0.148191 5.46338 0.715202 -0.148191 5.46342 0.751753 -0.148191 
5.46346 0.786839 -0.148191 5.4635 0.820092 -0.148191 5.46354 0.85123 -0.148191 
5.46357 0.880061 -0.148191 5.4636 0.906482 -0.148191 5.46363 0.930465 -0.148191 
5.46365 0.952051 -0.148191 5.46367 0.971329 -0.148191 5.46369 0.988432 -0.148191 
5.46371 1.00351 -0.148191 5.46373 1.01674 -0.148191 5.46374 1.02829 -0.148191 
5.46375 1.03833 -0.148191 5.46376 1.04703 -0.148191 5.46377 1.05455 -0.148191 
5.46378 1.06104 -0.148191 5.46378 1.06661 -0.148191 5.46379 1.07139 -0.148191 
5.4638 1.07549 -0.148191 5.4638 1.079 -0.148191 5.4638 1.082 -0.148191 
5.50335 0.284919 -0.148191 5.50337 0.302115 -0.148191 5.50339 0.321508 -0.148191 
5.50341 0.34323 -0.148191 5.50343 0.367375 -0.148191 5.50345 0.393985 -0.148191 
5.50348 0.423033 -0.148191 5.50351 0.454416 -0.148191 5.50354 0.487939 -0.148191 
5.50357 0.523319 -0.148191 5.5036 0.560184 -0.148191 5.50363 0.598086 -0.148191 
5.50367 0.636521 -0.148191 5.5037 0.674957 -0.148191 5.50374 0.712859 -0.148191 
5.50377 0.749724 -0.148191 5.5038 0.785105 -0.148191 5.50383 0.81863 -0.148191 
5.50386 0.850013 -0.148191 5.50388 0.879062 -0.148191 5.50391 0.905672 -0.148191 
5.50393 0.929818 -0.148191 5.50395 0.95154 -0.148191 5.50396 0.970933 -0.148191 
5.50398 0.988129 -0.148191 5.50399 1.00328 -0.148191 5.50401 1.01657 -0.148191 
5.50402 1.02817 -0.148191 5.50403 1.03825 -0.148191 5.50403 1.04698 -0.148191 
5.50404 1.05452 -0.148191 5.50405 1.06101 -0.148191 5.50405 1.0666 -0.148191 
5.50406 1.07139 -0.148191 5.50406 1.07549 -0.148191 5.50406 1.079 -0.148191 
[...]
POINT_DATA 11544
FIELD FieldData 5
pressure 1 11544 float
0.118431 0.119739 0.122374 0.125186 0.127707 0.129529 0.130278 0.130583 0.13049 
0.132811 0.138468 0.146661 0.154057 0.159394 0.161963 0.162511 0.162019 0.160579 
0.159098 0.158217 0.157916 0.158084 0.158197 0.158575 0.158797 0.159197 0.159629 
0.160135 0.16049 0.160805 0.161006 0.161337 0.161452 0.161766 0.16181 0.161918 
0.161982 0.138347 0.136319 0.133563 0.13131 0.130143 0.13032 0.130519 0.131078 
0.131935 0.133379 0.136979 0.143079 0.15049 0.15751 0.162326 0.164174 0.163702 
0.162263 0.160725 0.159606 0.158932 0.158691 0.158812 0.159252 0.1599 0.160525 
0.161047 0.161572 0.161986 0.162372 0.162564 0.162679 0.162717 0.162695 0.162727 
0.162581 0.162515 0.151802 0.151012 0.1477 0.142849 0.137342 0.133438 0.131548 
0.130434 0.129691 0.130366 0.133379 0.138963 0.146482 0.15406 0.159521 0.162218 
0.162439 0.161838 0.16041 0.158837 0.157272 0.156677 0.156825 0.157556 0.15851 
0.159476 0.160109 0.160451 0.160556 0.160634 0.160684 0.160684 0.160697 0.160637 
0.160678 0.160535 0.160463 0.159656 0.15961 0.15719 0.152926 0.147037 0.140551 
0.134996 0.130499 0.127703 0.127406 0.129893 0.134921 0.141887 0.148829 0.154649 
0.15875 0.160274 0.160505 0.159391 0.157738 0.156255 0.155526 0.155634 0.15619 
0.156885 0.157428 0.157848 0.15809 0.158223 0.158289 0.158338 0.158377 0.158418 
0.158442 0.15851 0.158416 0.158375 0.164597 0.165102 0.163359 0.160528 0.155767 
0.148724 0.140104 0.132027 0.12658 0.124813 0.126564 0.131062 0.137218 0.143337 
0.149285 0.154474 0.157115 0.158114 0.157639 0.15682 0.15588 0.155315 0.154969 
0.154912 0.154773 0.154828 0.154974 0.155231 0.155486 0.155735 0.155974 0.156156 
0.156354 0.156422 0.156585 0.156515 0.156434 0.169179 0.169656 0.169016 0.166877 
0.162837 0.155785 0.145814 0.135068 0.127074 0.123165 0.123595 0.127108 0.13262 
0.138214 0.144172 0.149811 0.153188 0.154983 0.155695 0.155895 0.155742 0.155238 
0.154513 0.153652 0.152952 0.15261 0.152546 0.152758 0.153067 0.153455 0.153773 
0.154118 0.154288 0.154481 0.154599 0.154557 0.154534 0.174271 0.175449 0.175105 
0.173157 0.168304 0.160634 0.150148 0.139151 0.129454 0.123507 0.121631 0.123539 
0.128129 0.133726 0.139352 0.145184 0.148867 0.151636 0.15355 0.154836 0.155223 
0.154795 0.153941 0.1529 0.152086 0.151494 0.1514 0.151437 0.15171 0.152014 
0.152416 0.152647 0.152972 0.153074 0.153297 0.153268 0.153153 0.18027 0.181293 
0.181184 0.178345 0.172868 0.164062 0.153882 0.143237 0.133562 0.1256 0.121489 
0.121075 0.124601 0.129472 0.134855 0.140476 0.144594 0.148255 0.151387 0.15326 
0.153953 0.153917 0.153186 0.152496 0.151834 0.151592 0.15134 0.151385 0.151502 
0.15174 0.151908 0.152193 0.152285 0.15246 0.152551 0.152521 0.152454 0.183878 
0.185565 0.184773 0.181986 0.17595 0.167765 0.157691 0.147859 0.13799 0.129484 
0.123085 0.120818 0.12193 0.125699 0.130414 0.135896 0.140461 0.145205 0.148793 
0.150967 0.152152 0.152465 0.152487 0.152074 0.152 0.151819 0.151904 0.151906 
0.151988 0.152078 0.152257 0.152325 0.152509 0.152531 0.152727 0.15264 0.152507 
0.184661 0.184929 0.184387 0.182013 0.17785 0.170702 0.162624 0.152952 0.14364 
0.134255 0.127086 0.121969 0.121078 0.122496 0.126321 0.131635 0.136984 0.142221 
0.145894 0.148452 0.150065 0.151112 0.151502 0.151932 0.152016 0.152407 0.152478 
0.15263 0.152703 0.152754 0.152753 0.152821 0.152795 0.152876 0.152866 0.15287 
0.152842 0.182716 0.181719 0.180561 0.179136 0.176456 0.172839 0.166845 0.159177 
0.149684 0.140721 0.131756 0.125051 0.120847 0.12028 0.123384 0.128332 0.13364 
0.138591 0.142414 0.145413 0.147668 0.149191 0.150529 0.151295 0.152078 0.152484 
0.152848 0.153014 0.153077 0.153095 0.153098 0.153063 0.153138 0.153082 0.153272 
0.153122 0.153085 0.180843 0.17865 0.176658 0.175325 0.174063 0.172651 0.170396 
0.165165 0.157665 0.147678 0.138361 0.128407 0.122336 0.120162 0.122011 0.125851 
0.130418 0.135233 0.139332 0.142752 0.145477 0.147688 0.149386 0.150718 0.151624 
0.152308 0.152749 0.152965 0.15312 0.153123 0.153137 0.153138 0.153096 0.153154 
0.153128 0.153135 0.153145 0.179688 0.176899 0.173949 0.17136 0.170311 0.170612 
0.170392 0.168715 0.163626 0.15515 0.143705 0.132634 0.124673 0.121135 0.121774 
0.123582 0.126141 0.129515 0.133845 0.137948 0.141758 0.144722 0.147238 0.148638 
0.149973 0.150729 0.151402 0.151717 0.15195 0.151992 0.152081 0.152019 0.152157 
0.152031 0.152283 0.152063 0.152121 0.120058 0.121229 0.123391 0.126015 0.12854 
0.130304 0.13093 0.130938 0.130984 0.132826 0.138528 0.146774 0.154744 0.160005 
0.162549 0.16304 0.162369 0.161042 0.159603 0.158862 0.158667 0.1588 0.159217 
0.159429 0.159806 0.160151 0.160598 0.160958 0.161319 0.16153 0.161889 0.162036 
0.162486 0.162537 0.162921 0.162922 0.16302 0.137244 0.140684 0.136831 0.133008 
0.131455 0.131237 0.131194 0.13113 0.131001 0.13241 0.136201 0.142423 0.150144 
0.15734 0.16216 0.164574 0.164206 0.162718 0.161288 0.160252 0.159688 0.159472 
0.159626 0.160151 0.160798 0.161398 0.161983 0.162387 0.162773 0.162994 0.163171 
0.163243 0.163264 0.163245 0.163267 0.16312 0.163021 0.148195 0.154395 0.151429 
0.146051 0.139459 0.134493 0.13175 0.129932 0.128736 0.129466 0.132727 0.138434 
0.14592 0.153719 0.159702 0.162509 0.163181 0.162357 0.160993 0.159336 0.157864 
0.15711 0.157241 0.157941 0.15884 0.15966 0.160243 0.160582 0.16075 0.160821 
0.160863 0.160872 0.160865 0.160838 0.160863 0.160744 0.160683 0.155847 0.162281 
0.160184 0.156322 0.149883 0.141802 0.13459 0.129621 0.12676 0.126543 0.129183 
0.134304 0.141341 0.148737 0.154871 0.158907 0.160899 0.161053 0.15995 0.158242 
0.156516 0.155617 0.155503 0.155988 0.156581 0.157108 0.157502 0.15778 0.15794 
0.15806 0.158184 0.158261 0.158382 0.158407 0.158539 0.158444 0.158396 0.162237 
0.167699 0.166016 0.163345 0.158152 0.150239 0.14051 0.131757 0.125972 0.124173 
0.125848 0.1303 0.136688 0.143297 0.149414 0.154434 0.157546 0.158613 0.158152 
0.157085 0.156114 0.155311 0.154862 0.15461 0.154461 0.154466 0.154586 0.154814 
0.155031 0.155296 0.155516 0.155771 0.155908 0.156074 0.156171 0.156139 0.156137 
0.168412 0.172674 0.17097 0.168713 0.164529 0.157531 0.147594 0.136501 0.127764 
0.123168 0.123258 0.12651 0.132017 0.138032 0.144119 0.149698 0.153387 0.155263 
0.155905 0.156143 0.155922 0.155342 0.154533 0.153635 0.152875 0.152406 0.15233 
0.152439 0.152724 0.153054 0.153435 0.153701 0.15403 0.154144 0.154384 0.154379 
0.154338 0.174633 0.178195 0.176634 0.174376 0.170035 0.163169 0.153567 0.14236 
0.131635 0.124553 0.121879 0.123356 0.127654 0.133301 0.139283 0.144815 0.148633 
0.151475 0.153547 0.154936 0.155359 0.155051 0.154105 0.153057 0.152065 0.151547 
0.15119 0.151247 0.151406 0.151724 0.152013 0.152373 0.15254 0.152807 0.152913 
0.152926 0.152926 0.180305 0.183531 0.182791 0.180266 0.175249 0.167524 0.158172 
0.14738 0.136789 0.12751 0.122425 0.121303 0.124332 0.128998 0.134611 0.139777 
0.143968 0.147954 0.151173 0.153283 0.154145 0.154056 0.153488 0.152616 0.151976 
0.151429 0.15134 0.15121 0.151331 0.15154 0.151834 0.152006 0.152337 0.152401 
0.152697 0.15266 0.152587 0.184365 0.18705 0.186746 0.184564 0.17918 0.171622 
0.162006 0.152273 0.141814 0.13225 0.124599 0.121352 0.121728 0.125333 0.129937 
0.1351 0.139923 0.144827 0.14856 0.150957 0.152132 0.152667 0.152432 0.152258 
0.151876 0.151854 0.151704 0.151782 0.151833 0.151992 0.152091 0.152336 0.152374 
0.15259 0.152625 0.152655 0.152599 0.186638 0.187101 0.18735 0.185803 0.181616 
0.174822 0.166398 0.156792 0.147416 0.137513 0.129165 0.12292 0.121144 0.122066 
0.125992 0.130897 0.136705 0.141776 0.145612 0.148204 0.149913 0.150913 0.151521 
0.15169 0.15199 0.152065 0.152369 0.152386 0.152533 0.152623 0.152773 0.152791 
0.153023 0.153009 0.153288 0.153185 0.153096 0.185556 0.183286 0.183431 0.182666 
0.180245 0.17648 0.170094 0.162286 0.15318 0.144112 0.134491 0.126587 0.121116 
0.120105 0.122749 0.128013 0.133338 0.138213 0.141959 0.144916 0.14711 0.148809 
0.15007 0.151087 0.151609 0.152243 0.152459 0.152696 0.152831 0.152905 0.152902 
0.153036 0.152989 0.153147 0.153114 0.153155 0.15312 0.183678 0.180153 0.178886 
0.178348 0.177204 0.175708 0.172741 0.167816 0.160756 0.15098 0.141095 0.130392 
0.123065 0.120185 0.121815 0.125507 0.130268 0.134735 0.138643 0.142051 0.144781 
0.147067 0.148862 0.150125 0.151119 0.151809 0.152263 0.152526 0.152691 0.152804 
0.152901 0.152907 0.153067 0.15303 0.153271 0.153121 0.153114 0.182501 0.177152 
0.174415 0.172887 0.171964 0.172148 0.171991 0.170338 0.165354 0.157168 0.14643 
0.135236 0.126214 0.12185 0.12133 0.123293 0.125446 0.128806 0.132829 0.137117 
0.140943 0.144215 0.146252 0.148051 0.149041 0.149983 0.150549 0.151065 0.151267 
0.15153 0.151584 0.151773 0.151731 0.151875 0.151834 0.151834 0.151784 0.122696 
0.123269 0.125118 0.127325 0.129348 0.130942 0.131232 0.131341 0.131222 0.133501 
0.138992 0.147164 0.154614 0.159854 0.162388 0.162887 0.162349 0.16126 0.160044 
0.159426 0.15955 0.159953 0.16044 0.160978 0.161265 0.16161 0.161873 0.162141 
0.162327 0.162617 0.162748 0.163133 0.163185 0.163547 0.16356 0.163723 0.163757 
0.138264 0.142081 0.137638 0.134283 0.132467 0.132412 0.132332 0.131735 0.131071 
0.13143 0.134466 0.140345 0.148181 0.155884 0.161231 0.163912 0.163937 0.162788 
0.161334 0.160459 0.16005 0.160008 0.160303 0.160817 0.161448 0.162101 0.162564 
0.163007 0.163246 0.163431 0.163522 0.163522 0.163572 0.163503 0.163558 0.1634 
0.163345 0.149118 0.155442 0.152513 0.147374 0.140652 0.135708 0.132744 0.129984 
0.127959 0.127815 0.130382 0.135741 0.143283 0.151584 0.158405 0.161926 0.162744 
0.162202 0.160945 0.159455 0.158172 0.15751 0.15768 0.158221 0.158995 0.159731 
0.16032 0.160686 0.160923 0.161046 0.161165 0.161191 0.161275 0.161232 0.161341 
0.161198 0.16117 0.156608 0.163605 0.162212 0.159048 0.152328 0.14341 0.135009 
0.129192 0.125631 0.124903 0.127071 0.132011 0.139061 0.146992 0.153842 0.158388 
0.160643 0.161165 0.160282 0.158705 0.156966 0.156013 0.155707 0.156141 0.156559 
0.157132 0.157498 0.157873 0.158068 0.158298 0.158434 0.158614 0.158687 0.1588 
0.158859 0.158819 0.15879 0.163226 0.16962 0.168467 0.166428 0.161284 0.152338 
0.141225 0.131304 0.125075 0.123021 0.124509 0.128845 0.135211 0.142294 0.148788 
0.154045 0.15759 0.159048 0.158869 0.157787 0.156749 0.155786 0.155338 0.15484 
0.154813 0.154682 0.15492 0.155056 0.155384 0.155607 0.155965 0.156129 0.156444 
0.156484 0.156755 0.156685 0.156678 0.169244 0.174638 0.173142 0.171058 0.166798 
0.159575 0.148988 0.1373 0.127722 0.12284 0.122637 0.126004 0.131468 0.137705 
0.143734 0.149432 0.153417 0.155654 0.156423 0.156808 0.156519 0.155993 0.154975 
0.154253 0.153297 0.153003 0.152719 0.152892 0.153013 0.153393 0.153605 0.154018 
0.154118 0.154445 0.15448 0.154533 0.154524 0.174747 0.179066 0.177382 0.174865 
0.170776 0.164539 0.155717 0.14448 0.133265 0.125119 0.122265 0.123486 0.127824 
0.133149 0.139048 0.144342 0.148495 0.151332 0.15388 0.155281 0.155878 0.155411 
0.154653 0.153353 0.152583 0.151768 0.151628 0.151452 0.151724 0.151912 0.152376 
0.152536 0.152999 0.15304 0.153384 0.153369 0.153323 0.178996 0.18268 0.181477 
0.179031 0.174753 0.168544 0.160458 0.150749 0.139583 0.129749 0.123521 0.122212 
0.124389 0.129132 0.134145 0.139248 0.143349 0.147763 0.151062 0.153351 0.154131 
0.154385 0.15345 0.15283 0.151923 0.151628 0.151221 0.15132 0.151337 0.151652 
0.151787 0.152202 0.152264 0.1526 0.152623 0.152687 0.152641 0.182536 0.184916 
0.184327 0.182504 0.178487 0.172216 0.164433 0.155483 0.145708 0.135319 0.127046 
0.122424 0.122526 0.125032 0.129455 0.13414 0.139558 0.144322 0.148247 0.150522 
0.151972 0.152273 0.152417 0.151795 0.15175 0.151418 0.151644 0.151533 0.151793 
0.151861 0.152204 0.152251 0.152614 0.152621 0.152933 0.152873 0.152786 0.18472 
0.184773 0.184821 0.18403 0.180689 0.175347 0.168022 0.159879 0.150974 0.141457 
0.131855 0.12504 0.121388 0.122005 0.124984 0.130555 0.13611 0.141286 0.144906 
0.147662 0.149301 0.150485 0.150815 0.151327 0.151228 0.151736 0.151762 0.15212 
0.152165 0.152466 0.152458 0.15273 0.152679 0.152947 0.152887 0.152985 0.152939 
0.184368 0.182158 0.182091 0.182242 0.180103 0.176637 0.171259 0.164235 0.156197 
0.147247 0.137672 0.128066 0.121799 0.120058 0.122886 0.127309 0.13284 0.137398 
0.14121 0.144071 0.146376 0.147991 0.149522 0.150141 0.151055 0.151365 0.151979 
0.152112 0.152478 0.152549 0.15275 0.152742 0.152988 0.152943 0.153239 0.153125 
0.15304 0.183338 0.179785 0.178632 0.178131 0.177001 0.175485 0.172945 0.168653 
0.162042 0.15374 0.142946 0.132472 0.123754 0.120501 0.121356 0.125127 0.129482 
0.133923 0.137815 0.141185 0.143983 0.146313 0.147928 0.149352 0.150148 0.151058 
0.151584 0.152033 0.15229 0.152485 0.152551 0.152702 0.152682 0.152852 0.152828 
0.152884 0.152863 0.182649 0.177733 0.174877 0.173432 0.171923 0.171674 0.171357 
0.169803 0.165721 0.157973 0.147987 0.136865 0.127491 0.122077 0.120881 0.122291 
0.124368 0.12761 0.131959 0.136389 0.140358 0.143281 0.145617 0.146919 0.14833 
0.149201 0.150061 0.150569 0.151056 0.151207 0.151459 0.151437 0.151686 0.151586 
0.151901 0.151687 0.151702 0.125962 0.126105 0.127163 0.12872 0.130256 0.131013 
0.131091 0.13153 0.131748 0.133663 0.13925 0.146954 0.154436 0.159351 0.162165 
0.162737 0.162393 0.161456 0.160545 0.160145 0.160378 0.160881 0.161649 0.162209 
0.162736 0.162995 0.163298 0.163449 0.163704 0.163819 0.164188 0.16426 0.164675 
0.164657 0.165094 0.165002 0.165157 0.139122 0.142876 0.139198 0.135299 0.133686 
0.133371 0.133412 0.132613 0.13152 0.131345 0.133579 0.138718 0.146364 0.154117 
0.160492 0.163475 0.164171 0.163021 0.161903 0.161077 0.160814 0.160941 0.161263 
0.161901 0.162573 0.163108 0.163659 0.163939 0.164186 0.164228 0.16423 0.164212 
0.164161 0.164113 0.164097 0.163954 0.163848 0.148533 0.155207 0.15263 0.148162 
0.142272 0.137814 0.134763 0.131422 0.12849 0.127288 0.128831 0.133459 0.14089 
0.149411 0.157017 0.161296 0.162705 0.162421 0.161435 0.160213 0.158995 0.158486 
0.158551 0.159144 0.159804 0.160416 0.160913 0.161228 0.161433 0.161577 0.161664 
0.161738 0.161756 0.161797 0.16185 0.161781 0.161729 0.155965 0.163721 0.162688 
0.160369 0.154518 0.146087 0.137539 0.130868 0.126129 0.124233 0.125461 0.129831 
0.136902 0.145018 0.152457 0.157473 0.160366 0.161238 0.160612 0.159249 0.157735 
0.156772 0.156641 0.156674 0.157209 0.15749 0.157921 0.158154 0.158469 0.158654 
0.158937 0.159063 0.159299 0.15932 0.159547 0.159421 0.159428 0.163005 0.170324 
0.169957 0.168773 0.164097 0.155153 0.143436 0.132699 0.125611 0.122688 0.123428 
0.127416 0.133644 0.140941 0.14759 0.153137 0.157031 0.158921 0.158859 0.158189 
0.157235 0.156593 0.155819 0.155611 0.155191 0.155259 0.155242 0.155505 0.155668 
0.156028 0.156222 0.156575 0.156659 0.156928 0.156945 0.156992 0.156976 0.169828 
0.176055 0.175166 0.173584 0.169468 0.161863 0.150738 0.138341 0.128331 0.12301 
0.122514 0.125514 0.130887 0.136957 0.143059 0.148436 0.152767 0.155191 0.156471 
0.156869 0.156985 0.156258 0.155586 0.154447 0.153946 0.15329 0.153304 0.153214 
0.153537 0.153712 0.154165 0.154315 0.154756 0.154783 0.155134 0.155114 0.155108 
0.175204 0.180245 0.178793 0.176438 0.17216 0.165987 0.156856 0.145801 0.134153 
0.126101 0.122845 0.124164 0.127971 0.133284 0.138424 0.143643 0.147712 0.151183 
0.153568 0.155469 0.155949 0.155726 0.15461 0.153804 0.152628 0.152248 0.151771 
0.151904 0.151942 0.152325 0.152471 0.152957 0.153017 0.153444 0.153433 0.153535 
0.153507 0.178755 0.182522 0.181287 0.178754 0.174654 0.168939 0.161685 0.152259 
0.141464 0.131293 0.125266 0.12349 0.125581 0.129263 0.13407 0.138525 0.143277 
0.147256 0.151079 0.153209 0.154216 0.154042 0.153658 0.152543 0.152096 0.151431 
0.151505 0.151317 0.151584 0.151675 0.152135 0.152208 0.152709 0.152701 0.153058 
0.153036 0.152962 0.181342 0.183106 0.182264 0.180525 0.177033 0.171962 0.165307 
0.157738 0.148156 0.138257 0.129297 0.124671 0.123378 0.125795 0.129394 0.134377 
0.13918 0.144261 0.147925 0.150324 0.15139 0.152221 0.151786 0.151778 0.151212 
0.151375 0.151199 0.151482 0.151492 0.151865 0.151893 0.152304 0.152266 0.152644 
0.152569 0.152701 0.152669 0.182638 0.18258 0.181949 0.181158 0.178564 0.174329 
0.16864 0.16173 0.154029 0.144572 0.135052 0.126827 0.122991 0.122626 0.125793 
0.130537 0.136154 0.14089 0.144548 0.146901 0.14882 0.149747 0.150577 0.150462 
0.15092 0.150877 0.151404 0.151446 0.151877 0.151935 0.152305 0.152293 0.152673 
0.152628 0.152949 0.152914 0.152841 0.182759 0.18024 0.179794 0.179807 0.178129 
0.175401 0.171058 0.165365 0.15855 0.150303 0.140055 0.130421 0.123011 0.121028 
0.12287 0.127601 0.132465 0.136991 0.140294 0.143328 0.145552 0.147459 0.148539 
0.149731 0.149944 0.150826 0.150997 0.151545 0.15169 0.152056 0.152068 0.15238 
0.152303 0.152644 0.152524 0.15268 0.152671 0.182141 0.178757 0.177006 0.176642 
0.175341 0.174012 0.171782 0.168425 0.163162 0.155191 0.145339 0.133869 0.125081 
0.120928 0.12164 0.124722 0.129131 0.133136 0.136957 0.140388 0.143291 0.14547 
0.147282 0.148231 0.149355 0.149972 0.150746 0.15109 0.151553 0.151714 0.152018 
0.152025 0.152365 0.15228 0.152638 0.152514 0.152492 0.182366 0.177384 0.174633 
0.172894 0.171278 0.170606 0.170211 0.168756 0.165242 0.158834 0.149243 0.138137 
0.128261 0.122533 0.120663 0.121628 0.123261 0.126862 0.131414 0.13597 0.139759 
0.142803 0.144552 0.14631 0.147177 0.148367 0.149095 0.149957 0.150302 0.15077 
0.150833 0.151156 0.151087 0.151363 0.151302 0.151382 0.15135 0.130022 0.129399 
0.129985 0.130735 0.131229 0.131289 0.130861 0.131537 0.131905 0.133998 0.138762 
0.146493 0.153756 0.159287 0.162148 0.163002 0.162493 0.161529 0.160606 0.160283 
0.160595 0.16123 0.161904 0.162644 0.16315 0.163646 0.163902 0.164224 0.164382 
0.164702 0.164793 0.165157 0.16517 0.1655 0.165477 0.165648 0.165708 0.140359 
0.144492 0.140433 0.137167 0.135206 0.134876 0.134924 0.133761 0.132639 0.132047 
0.133729 0.138157 0.145111 0.153072 0.159544 0.163041 0.164084 0.163612 0.162287 
0.161557 0.161398 0.161515 0.162002 0.162579 0.163372 0.163995 0.16439 0.164801 
0.164906 0.165008 0.164981 0.164924 0.164892 0.164785 0.164805 0.164639 0.164576 
0.147975 0.154892 0.152953 0.149419 0.144457 0.1408 0.137932 0.134285 0.130436 
0.128109 0.128769 0.132581 0.139417 0.147829 0.155612 0.1609 0.16249 0.162771 
0.162066 0.1609 0.159913 0.159356 0.159678 0.160111 0.16092 0.161465 0.161887 
0.162092 0.162231 0.162307 0.162405 0.162405 0.162493 0.162461 0.162586 0.162448 
0.16242 0.154646 0.162725 0.162488 0.161181 0.156701 0.14959 0.141553 0.134413 
0.128548 0.125085 0.125126 0.128803 0.135452 0.143531 0.15099 0.156664 0.159711 
0.161021 0.160738 0.159682 0.158538 0.157904 0.157666 0.157973 0.158164 0.158525 
0.158714 0.15898 0.159087 0.15931 0.159416 0.159643 0.159699 0.159866 0.159896 
0.159903 0.159866 0.162024 0.170016 0.17025 0.169918 0.166227 0.158032 0.146704 
0.135668 0.127741 0.123469 0.123183 0.126516 0.132599 0.139673 0.146414 0.151901 
0.156007 0.158034 0.158536 0.158142 0.157754 0.157042 0.156748 0.156104 0.15599 
0.155685 0.155877 0.155945 0.156288 0.156469 0.156873 0.157012 0.157377 0.157399 
0.157711 0.157653 0.157668 0.169481 0.176532 0.176247 0.175374 0.171524 0.163912 
0.152406 0.139818 0.129361 0.12373 0.12262 0.125361 0.130258 0.136348 0.141986 
0.147306 0.151488 0.154406 0.15584 0.156889 0.156888 0.156571 0.155575 0.154968 
0.153939 0.15377 0.153418 0.153683 0.153756 0.154215 0.154369 0.154855 0.154901 
0.155328 0.155291 0.155411 0.155384 0.175422 0.181019 0.180184 0.178206 0.173961 
0.167119 0.157743 0.146103 0.134856 0.126721 0.123779 0.124729 0.128465 0.132969 
0.138055 0.14266 0.147145 0.150437 0.153545 0.155135 0.155824 0.155341 0.154727 
0.153478 0.153003 0.15219 0.152278 0.152052 0.152437 0.152544 0.153088 0.153185 
0.153746 0.153729 0.154123 0.154122 0.154085 0.178564 0.1826 0.18147 0.179233 
0.175076 0.169481 0.161793 0.152821 0.141952 0.132573 0.126511 0.125152 0.126393 
0.13004 0.133885 0.138618 0.142869 0.147447 0.150778 0.152968 0.153667 0.153981 
0.153107 0.152697 0.151814 0.151758 0.151357 0.151631 0.151606 0.152028 0.152088 