# vtk DataFile Version 5.1
vtk output
ASCII
DATASET POLYDATA
POINTS 27396 float
1.96779 0.964499 -0.582287 1.96756 0.964505 -0.582071 1.96505 0.963703 -0.578751 
1.96876 0.9646 -0.583364 1.96836 0.964525 -0.582886 1.96805 0.964468 -0.582521 
1.97382 0.965315 -0.589143 1.97439 0.965333 -0.589725 1.98169 0.965492 -0.597175 
1.98176 0.965481 -0.597233 1.98235 0.965377 -0.597728 1.99122 0.964472 -0.605685 
1.94416 0.958841 -0.553 1.94255 0.958326 -0.550876 1.94192 0.95808 -0.55 
1.9465 0.959591 -0.55609 1.94474 0.959034 -0.553778 1.94914 0.960215 -0.559363 
1.94698 0.959792 -0.556773 1.95204 0.96088 -0.562918 1.9496 0.960388 -0.559991 
1.95528 0.961579 -0.566862 1.95244 0.961041 -0.563475 1.95887 0.962444 -0.571312 
1.95863 0.962362 -0.570996 1.96304 0.963362 -0.576403 1.95935 0.962563 -0.571915 
1.96411 0.963546 -0.577656 1.99223 0.964402 -0.606626 2.00415 0.963624 -0.617779 
1.99229 0.964403 -0.606694 2.01684 0.96318 -0.630015 2.01677 0.963186 -0.629958 
2.01616 0.963196 -0.629361 2.01823 0.962743 -0.630969 2.01908 0.962443 -0.631519 
2.03131 0.959158 -0.640466 2.03959 0.957009 -0.646595 2.06199 0.95314 -0.665124 
2.05582 0.954228 -0.660044 2.08622 0.950642 -0.686863 2.08432 0.950858 -0.68517 
2.0661 0.952865 -0.668964 2.08661 0.950503 -0.687115 2.08667 0.950484 -0.687153 
2.0867 0.950477 -0.687177 2.08684 0.95044 -0.687279 2.12244 0.940791 -0.713228 
2.14594 0.938288 -0.734227 2.15731 0.936941 -0.744248 2.17665 0.935414 -0.762062 
2.18239 0.934926 -0.767318 2.19869 0.930534 -0.779231 2.20125 0.929854 -0.781109 
2.22446 0.928906 -0.803369 2.29489 0.932101 -0.876993 2.28845 0.931142 -0.869591 
2.26462 0.929343 -0.843962 2.3021 0.933085 -0.885193 2.31419 0.934414 -0.898609 
2.33325 0.930091 -0.913341 2.24698 0.92794 -0.824918 2.25267 0.928247 -0.830919 
2.36331 0.921686 -0.934999 2.35714 0.923266 -0.93041 2.36926 0.91964 -0.938899 
2.39218 0.915359 -0.957541 1.26264 0.535711 0.551655 1.26181 0.535194 0.553 
1.26365 0.536345 0.55 1.26089 0.533608 0.555499 1.26053 0.533379 0.55609 
1.26002 0.53231 0.557672 1.2598 0.53084 0.559363 1.25933 0.529044 0.561626 
1.25899 0.528088 0.562918 1.25864 0.527 0.564358 1.25831 0.524829 0.566862 
1.25743 0.521328 0.571238 1.25742 0.521272 0.571312 1.2574 0.521224 0.571377 
1.25661 0.516982 0.576403 1.25604 0.514764 0.579198 1.2557 0.51201 0.582287 
1.25478 0.507673 0.587556 1.25477 0.507418 0.587812 1.25468 0.506181 0.589143 
1.25361 0.500064 0.596323 1.25358 0.499876 0.596543 1.25356 0.499268 0.597175 
1.25243 0.49157 0.606001 1.25238 0.491242 0.606376 1.25237 0.490998 0.606626 
1.25218 0.48988 0.607943 1.25165 0.485356 0.612991 1.25153 0.48434 0.614124 
1.25121 0.481708 0.617083 1.2512 0.481018 0.617779 1.25001 0.471155 0.628836 
1.24997 0.469053 0.630969 1.24882 0.459518 0.641659 1.24872 0.454679 0.646595 
1.24771 0.44675 0.655541 1.24747 0.437408 0.665124 1.24683 0.432843 0.670325 
1.24638 0.417992 0.685631 1.24637 0.417795 0.685832 1.24646 0.420794 0.682747 
1.24643 0.416451 0.687115 1.24582 0.40306 0.701126 1.24574 0.401229 0.70303 
1.24594 0.408195 0.69587 1.24603 0.390746 0.713228 1.24574 0.386108 0.718152 
1.24559 0.383389 0.721022 1.24574 0.387235 0.717024 1.24581 0.37558 0.728606 
1.24582 0.375482 0.7287 1.24594 0.371609 0.73245 1.24641 0.364404 0.739186 
1.24689 0.358863 0.744248 1.24689 0.358786 0.744323 1.24724 0.343788 0.75897 
1.24822 0.322368 0.77941 1.24838 0.32165 0.779977 1.24835 0.338046 0.763599 
1.24737 0.340904 0.761724 1.25593 0.315583 0.778486 2.39868 0.913162 -0.961841 
2.41851 0.908274 -0.976783 2.43042 0.903426 -0.983843 2.44258 0.90032 -0.992897 
2.45464 0.893157 -0.997803 2.45959 0.891363 -1.00096 2.46931 0.882714 -1.00203 
2.4724 0.881275 -1.00367 2.47809 0.871855 -0.999944 2.48082 0.869914 -1.00073 
2.48444 0.857127 -0.991567 2.48431 0.861191 -0.995504 2.48239 0.867767 -1.00016 
2.48488 0.853073 -0.98795 2.48174 0.84275 -0.974489 2.47754 0.833132 -0.960678 
2.47379 0.826625 -0.950422 2.46273 0.81256 -0.925293 2.46826 0.82064 -0.938899 
2.45952 0.808586 -0.91811 2.4357 0.789235 -0.874941 2.43712 0.789874 -0.876993 
2.43276 0.788424 -0.871185 2.45055 0.800705 -0.901259 2.13405 0.767903 -0.551959 
2.1349 0.768097 -0.553 2.13241 0.767588 -0.55 2.13676 0.768227 -0.554987 
2.13782 0.768265 -0.55609 2.13938 0.76875 -0.558133 2.14041 0.768956 -0.559363 
2.14216 0.769349 -0.561503 2.14341 0.769505 -0.562918 2.14524 0.769965 -0.565204 
2.1467 0.770163 -0.566862 2.14841 0.770377 -0.568792 2.15044 0.77087 -0.571312 
2.1532 0.771309 -0.574512 2.15393 0.771338 -0.575269 2.15495 0.771453 -0.576403 
2.15762 0.771389 -0.579007 2.15774 0.771405 -0.579143 2.16058 0.77171 -0.582287 
2.16378 0.772029 -0.585815 2.16672 0.772418 -0.589143 2.17035 0.772739 -0.593092 
2.17393 0.773244 -0.597175 2.17809 0.773507 -0.601594 2.18244 0.774182 -0.606626 
2.18718 0.77437 -0.611545 2.19254 0.775245 -0.617779 2.19797 0.775282 -0.623247 
2.20474 0.776223 -0.630969 2.21121 0.776003 -0.637218 2.21985 0.776742 -0.646595 
2.23005 0.777201 -0.657255 2.2305 0.777196 -0.6577 2.23803 0.776181 -0.66421 
2.23901 0.776114 -0.665124 2.25137 0.774765 -0.676129 2.26254 0.774582 -0.687115 
2.28226 0.771962 -0.704222 2.29197 0.771261 -0.713228 2.32409 0.76725 -0.741338 
2.3273 0.766944 -0.744248 2.32973 0.766828 -0.746561 2.34349 0.766193 -0.759686 
2.36256 0.768151 -0.78071 2.36293 0.768178 -0.781109 2.3852 0.773905 -0.809111 
2.39881 0.776106 -0.824918 2.41125 0.780927 -0.842171 1.2738 0.313532 0.762676 
1.28063 0.317272 0.752096 1.26149 0.315772 0.772739 1.25713 0.315004 0.777869 
1.30809 0.343505 0.6984 1.3118 0.348756 0.689442 1.30296 0.333807 0.713228 
1.28529 0.320468 0.744248 1.29128 0.325668 0.733057 1.33464 0.368765 0.646595 
1.34191 0.376069 0.63202 1.32468 0.360193 0.665124 1.33172 0.365571 0.652706 
1.31276 0.35012 0.687115 1.3163 0.352757 0.680938 1.36907 0.398643 0.582287 
1.37107 0.399836 0.579088 1.36867 0.398336 0.582992 1.36473 0.396124 0.589143 
1.35977 0.39306 0.597175 1.36336 0.395237 0.591399 1.3543 0.389071 0.606626 
1.35531 0.389712 0.604976 1.34846 0.383759 0.617779 1.3487 0.383939 0.617361 
1.34787 0.383075 0.619055 1.34256 0.376473 0.630969 1.34285 0.376624 0.630525 
1.3457 0.380433 0.623867 1.34222 0.376328 0.631452 1.38982 0.409129 0.551054 
1.39053 0.409473 0.55 1.38851 0.408493 0.553 1.38739 0.407752 0.554857 
1.3869 0.407012 0.55609 1.38452 0.40612 0.559363 1.38489 0.406325 0.558785 
1.38531 0.406582 0.558106 1.38208 0.404997 0.562918 1.3829 0.405609 0.561492 
1.37935 0.403789 0.566862 1.38041 0.40448 0.565106 1.3763 0.402389 0.571312 
1.3777 0.403262 0.569035 1.37287 0.400722 0.576403 1.37486 0.40187 0.573275 
1.37209 0.400394 0.577514 0.430769 0.0189533 -0.55 0.428375 0.0174854 -0.553 
0.430769 0.0189533 -0.553 0.428375 0.0174854 -0.55 0.430785 0.0189403 -0.553116 
0.434012 0.0209444 -0.553 0.434012 0.0209444 -0.55 0.43405 0.0209135 -0.553265 
0.437459 0.0230642 -0.553 0.437459 0.0230642 -0.55 0.43752 0.0230144 -0.553409 
0.441124 0.0253211 -0.553 0.441124 0.0253211 -0.55 0.44121 0.0252508 -0.553554 
0.44502 0.0277224 -0.553 0.44502 0.0277224 -0.55 0.445132 0.0276305 -0.553694 
0.449161 0.0302764 -0.553 0.449161 0.0302764 -0.55 0.449298 0.030162 -0.553829 
0.453561 0.0329925 -0.553 0.453561 0.0329925 -0.55 0.453723 0.032854 -0.553965 
0.458237 0.0358783 -0.553 0.458237 0.0358783 -0.55 0.458422 0.0357158 -0.554085 
0.463206 0.0389419 -0.553 0.463206 0.0389419 -0.55 0.46341 0.0387569 -0.554183 
0.46848 0.0421956 -0.553 0.46848 0.0421956 -0.55 0.468702 0.0419871 -0.554273 
0.474076 0.0456516 -0.553 0.474076 0.0456516 -0.55 0.474315 0.0454167 -0.554371 
0.48001 0.0493204 -0.553 0.48001 0.0493204 -0.55 0.480266 0.0490565 -0.554477 
0.4863 0.053213 -0.553 0.4863 0.053213 -0.55 0.486573 0.0529173 -0.55459 
0.492958 0.0573487 -0.553 0.492958 0.0573487 -0.55 0.493252 0.0570106 -0.554744 
0.500019 0.061722 -0.553 0.500019 0.061722 -0.55 0.500324 0.0613479 -0.554862 
0.5075 0.0663431 -0.553 0.5075 0.0663431 -0.55 0.507806 0.065941 -0.554935 
0.515411 0.0712404 -0.553 0.515411 0.0712404 -0.55 0.515719 0.0708022 -0.555025 
0.523769 0.0764259 -0.553 0.523769 0.0764259 -0.55 0.524081 0.0759437 -0.555135 
0.532605 0.0818996 -0.553 0.532605 0.0818996 -0.55 0.532912 0.0813779 -0.555221 
0.541934 0.0876799 -0.553 0.541934 0.0876799 -0.55 0.542233 0.0871174 -0.555302 
0.551773 0.0937867 -0.553 0.551773 0.0937867 -0.55 0.552063 0.0931746 -0.555407 
0.562147 0.100222 -0.553 0.562147 0.100222 -0.55 0.562422 0.0995619 -0.555507 
0.573074 0.107003 -0.553 0.573074 0.107003 -0.55 0.573329 0.106292 -0.555604 
0.584573 0.114139 -0.553 0.584573 0.114139 -0.55 0.584804 0.113376 -0.555693 
0.596662 0.121647 -0.553 0.596662 0.121647 -0.55 0.596866 0.120826 -0.55578 
0.609357 0.129546 -0.553 0.609357 0.129546 -0.55 0.609531 0.128652 -0.555888 
0.622678 0.137852 -0.553 0.622678 0.137852 -0.55 0.622817 0.136867 -0.556029 
0.636644 0.146532 -0.553 0.636644 0.146532 -0.55 0.63105 0.14196 -0.55609 
0.636737 0.145502 -0.55609 0.636739 0.145479 -0.556148 0.651267 0.155616 -0.553 
0.651267 0.155616 -0.55 0.651309 0.154562 -0.55609 0.651312 0.154496 -0.556251 
0.666558 0.165127 -0.553 0.666558 0.165127 -0.55 0.666549 0.164053 -0.55609 
0.666548 0.163928 -0.556383 0.682526 0.175035 -0.553 0.682526 0.175035 -0.55 
0.682467 0.173939 -0.55609 0.682458 0.17378 -0.556453 0.699178 0.185352 -0.553 
0.699178 0.185352 -0.55 0.699067 0.184225 -0.55609 0.69905 0.184057 -0.556459 
0.71652 0.19611 -0.553 0.71652 0.19611 -0.55 0.716355 0.194939 -0.55609 
0.71633 0.194763 -0.55646 0.734558 0.207307 -0.553 0.734558 0.207307 -0.55 
0.734338 0.206099 -0.55609 0.734302 0.205901 -0.556492 0.753292 0.218943 -0.553 
0.753292 0.218943 -0.55 0.753018 0.217699 -0.55609 0.752967 0.217469 -0.556542 
0.772726 0.231048 -0.553 0.772726 0.231048 -0.55 0.772401 0.229781 -0.55609 
0.77232 0.229467 -0.556688 0.415107 0.009167 -0.55 0.414484 0.00874949 -0.553 
0.415107 0.009167 -0.553 0.414484 0.00874949 -0.55 0.415139 0.00912569 -0.553169 
0.417321 0.0105862 -0.553 0.417321 0.0105862 -0.55 0.417441 0.0104519 -0.553543 
[...]
POINT_DATA 27396
SCALARS pressure float
LOOKUP_TABLE default
0.15 0.15 0.15 0.15 0.15 0.15 0.15 0.15 0.15 
0.15 0.15 0.15 0.15 0.15 0.15 0.15 0.15 0.15 
0.15 0.15 0.15 0.15 0.15 0.15 0.15 0.15 0.15 
0.15 0.15 0.15 0.15 0.15 0.15 0.15 0.15 0.15 
0.15 0.15 0.15 0.15 0.15 0.15 0.15 0.15 0.15 
0.15 0.15 0.15 0.15 0.15 0.15 0.15 0.15 0.15 
0.15 0.15 0.15 0.15 0.15 0.15 0.15 0.15 0.15 
0.15 0.15 0.15 0.15 0.15 0.15 0.15 0.15 0.15 
0.15 0.15 0.15 0.15 0.15 0.15 0.15 0.15 0.15 
0.15 0.15 0.15 0.15 0.15 0.15 0.15 0.15 0.15 
0.15 0.15 0.15 0.15 0.15 0.15 0.15 0.15 0.15 
0.15 0.15 0.15 0.15 0.15 0.15 0.15 0.15 0.15 
0.15 0.15 0.15 0.15 0.15 0.15 0.15 0.15 0.15 
0.15 0.15 0.15 0.15 0.15 0.15 0.15 0.15 0.15 
0.15 0.15 0.15 0.15 0.15 0.15 0.15 0.15 0.15 
0.15 0.15 0.15 0.15 0.15 0.15 0.15 0.15 0.15 
0.15 0.15 0.15 0.15 0.15 0.15 0.15 0.15 0.15 
0.15 0.15 0.15 0.15 0.15 0.15 0.15 0.15 0.15 
0.15 0.15 0.15 0.15 0.15 0.15 0.15 0.15 0.15 
0.15 0.15 0.15 0.15 0.15 0.15 0.15 0.15 0.15 
0.15 0.15 0.15 0.15 0.15 0.15 0.15 0.15 0.15 
0.15 0.15 0.15 0.15 0.15 0.15 0.15 0.15 0.15 
0.15 0.15 0.15 0.15 0.15 0.15 0.15 0.15 0.15 
0.15 0.15 0.15 0.15 0.15 0.15 0.15 0.15 0.15 
0.15 0.15 0.15 0.15 0.15 0.15 0.15 0.15 0.15 
0.15 0.15 0.15 0.15 0.15 0.15 0.15 0.15 0.15 
0.15 0.15 0.15 0.15 0.15 0.15 0.15 0.15 0.15 
0.15 0.15 0.15 0.15 0.15 0.15 0.15 0.15 0.15 
0.15 0.15 0.15 0.15 0.15 0.15 0.15 0.15 0.15 
0.15 0.15 0.15 0.15 0.15 0.15 0.15 0.15 0.15 
0.15 0.15 0.15 0.15 0.15 0.15 0.15 0.15 0.15 
0.15 0.15 0.15 0.15 0.15 0.15 0.15 0.15 0.15 
0.15 0.15 0.15 0.15 0.15 0.15 0.15 0.15 0.15 
0.15 0.15 0.15 0.15 0.15 0.15 0.15 0.15 0.15 
0.15 0.15 0.15 0.15 0.15 0.15 0.15 0.15 0.15 
0.15 0.15 0.15 0.15 0.15 0.15 0.15 0.15 0.15 
0.15 0.15 0.15 0.15 0.15 0.15 0.15 0.15 0.15 
0.15 0.15 0.15 0.15 0.15 0.15 0.15 0.15 0.15 
0.15 0.15 0.15 0.15 0.15 0.15 0.15 0.15 0.15 
0.15 0.15 0.15 0.15 0.15 0.15 0.15 0.15 0.15 
0.15 0.15 0.15 0.15 0.15 0.15 0.15 0.15 0.15 
0.15 0.15 0.15 0.15 0.15 0.15 0.15 0.15 0.15 
0.15 0.15 0.15 0.15 0.15 0.15 0.15 0.15 0.15 
0.15 0.15 0.15 0.15 0.15 0.15 0.15 0.15 0.15 
0.15 0.15 0.15 0.15 0.15 0.15 0.15 0.15 0.15 
0.15 0.15 0.15 0.15 0.15 0.15 0.15 0.15 0.15 
0.15 0.15 0.15 0.15 0.15 0.15 0.15 0.15 0.15 
0.15 0.15 0.15 0.15 0.15 0.15 0.15 0.15 0.15 
0.15 0.15 0.15 0.15 0.15 0.15 0.15 0.15 0.15 
0.15 0.15 0.15 0.15 0.15 0.15 0.15 0.15 0.15 
0.15 0.15 0.15 0.15 0.15 0.15 0.15 0.15 0.15 
0.15 0.15 0.15 0.15 0.15 0.15 0.15 0.15 0.15 
0.15 0.15 0.15 0.15 0.15 0.15 0.15 0.15 0.15 
0.15 0.15 0.15 0.15 0.15 0.15 0.15 0.15 0.15 
0.15 0.15 0.15 0.15 0.15 0.15 0.15 0.15 0.15 
0.15 0.15 0.15 0.15 0.15 0.15 0.15 0.15 0.15 
0.15 0.15 0.15 0.15 0.15 0.15 0.15 0.15 0.15 
0.15 0.15 0.15 0.15 0.15 0.15 0.15 0.15 0.15 
0.15 0.15 0.15 0.15 0.15 0.15 0.15 0.15 0.15 
0.15 0.15 0.15 0.15 0.15 0.15 0.15 0.15 0.15 
0.15 0.15 0.15 0.15 0.15 0.15 0.15 0.15 0.15 
0.15 0.15 0.15 0.15 0.15 0.15 0.15 0.15 0.15 
0.15 0.15 0.15 0.15 0.15 0.15 0.15 0.15 0.15 
0.15 0.15 0.15 0.15 0.15 0.15 0.15 0.15 0.15 
0.15 0.15 0.15 0.15 0.15 0.15 0.15 0.15 0.15 
0.15 0.15 0.15 0.15 0.15 0.15 0.15 0.15 0.15 
0.15 0.15 0.15 0.15 0.15 0.15 0.15 0.15 0.15 
0.15 0.15 0.15 0.15 0.15 0.15 0.15 0.15 0.15 
0.15 0.15 0.15 0.15 0.15 0.15 0.15 0.15 0.15 
0.15 0.15 0.15 0.15 0.15 0.15 0.15 0.15 0.15 
0.15 0.15 0.15 0.15 0.15 0.15 0.15 0.15 0.15 
0.15 0.15 0.15 0.15 0.15 0.15 0.15 0.15 0.15 
0.15 0.15 0.15 0.15 0.15 0.15 0.15 0.15 0.15 
0.15 0.15 0.15 0.15 0.15 0.15 0.15 0.15 0.15 
0.15 0.15 0.15 0.15 0.15 0.15 0.15 0.15 0.15 
0.15 0.15 0.15 0.15 0.15 0.15 0.15 0.15 0.15 
0.15 0.15 0.15 0.15 0.15 0.15 0.15 0.15 0.15 
0.15 0.15 0.15 0.15 0.15 0.15 0.15 0.15 0.15 
0.15 0.15 0.15 0.15 0.15 0.15 0.15 0.15 0.15 
0.15 0.15 0.15 0.15 0.15 0.15 0.15 0.15 0.15 
0.15 0.15 0.15 0.15 0.15 0.15 0.15 0.15 0.15 
0.15 0.15 0.15 0.15 0.15 0.15 0.15 0.15 0.15 
0.15 0.15 0.15 0.15 0.15 0.15 0.15 0.15 0.15 
0.15 0.15 0.15 0.15 0.15 0.15 0.15 0.15 0.15 
0.15 0.15 0.15 0.15 0.15 0.15 0.15 0.15 0.15 
0.15 0.15 0.15 0.15 0.15 0.15 0.15 0.15 0.15 
0.15 0.15 0.15 0.15 0.15 0.15 0.15 0.15 0.15 
0.15 0.15 0.15 0.15 0.15 0.15 0.15 0.15 0.15 
0.15 0.15 0.15 0.15 0.15 0.15 0.15 0.15 0.15 
0.15 0.15 0.15 0.15 0.15 0.15 0.15 0.15 0.15 
0.15 0.15 0.15 0.15 0.15 0.15 0.15 0.15 0.15 
0.15 0.15 0.15 0.15 0.15 0.15 0.15 0.15 0.15 
0.15 0.15 0.15 0.15 0.15 0.15 0.15 0.15 0.15 
0.15 0.15 0.15 0.15 0.15 0.15 0.15 0.15 0.15 
0.15 0.15 0.15 0.15 0.15 0.15 0.15 0.15 0.15 
0.15 0.15 0.15 0.15 0.15 0.15 0.15 0.15 0.15 
0.15 0.15 0.15 0.15 0.15 0.15 0.15 0.15 0.15 
0.15 0.15 0.15 0.15 0.15 0.15 0.15 0.15 0.15 
0.15 0.15 0.15 0.15 0.15 0.15 0.15 0.15 0.15 
0.15 0.15 0.15 0.15 0.15 0.15 0.15 0.15 0.15 
0.15 0.15 0.15 0.15 0.15 0.15 0.15 0.15 0.15 
0.15 0.15 0.15 0.15 0.15 0.15 0.15 0.15 0.15 
0.15 0.15 0.15 0.15 0.15 0.15 0.15 0.15 0.15 
0.15 0.15 0.15 0.15 0.15 0.15 0.15 0.15 0.15 
0.15 0.15 0.15 0.15 0.15 0.15 0.15 0.15 0.15 
0.15 0.15 0.15 0.15 0.15 0.15 0.15 0.15 0.15 
0.15 0.15 0.15 0.15 0.15 0.15 0.15 0.15 0.15 
0.15 0.15 0.15 0.15 0.15 0.15 0.15 0.15 0.15 
0.15 0.15 0.15 0.15 0.15 0.15 0.15 0.15 0.15 
0.15 0.15 0.15 0.15 0.15 0.15 0.15 0.15 0.15 
0.15 0.15 0.15 0.15 0.15 0.15 0.15 0.15 0.15 
0.15 0.15 0.15 0.15 0.15 0.15 0.15 0.15 0.15 
0.15 0.15 0.15 0.15 0.15 0.15 0.15 0.15 0.15 
0.15 0.15 0.15 0.15 0.15 0.15 0.15 0.15 0.15 
0.15 0.15 0.15 0.15 0.15 0.15 0.15 0.15 0.15 
0.15 0.15 0.15 0.15 0.15 0.15 0.15 0.15 0.15 
0.15 0.15 0.15 0.15 0.15 0.15 0.15 0.15 0.15 
0.15 0.15 0.15 0.15 0.15 0.15 0.15 0.15 0.15 
0.15 0.15 0.15 0.15 0.15 0.15 0.15 0.15 0.15 
0.15 0.15 0.15 0.15 0.15 0.15 0.15 0.15 0.15 
0.15 0.15 0.15 0.15 0.15 0.15 0.15 0.15 0.15 
0.15 0.15 0.15 0.15 0.15 0.15 0.15 0.15 0.15 
0.15 0.15 0.15 0.15 0.15 0.15 0.15 0.15 0.15 
0.15 0.15 0.15 0.15 0.15 0.15 0.15 0.15 0.15 
0.15 0.15 0.15 0.15 0.15 0.15 0.15 0.15 0.15 
0.15 0.15 0.15 0.15 0.15 0.15 0.15 0.15 0.15 
0.15 0.15 0.15 0.15 0.15 0.15 0.15 0.15 0.15 
0.15 0.15 0.15 0.15 0.15 0.15 0.15 0.15 0.15 
0.15 0.15 0.15 0.15 0.15 0.15 0.15 0.15 0.15 
0.15 0.15 0.15 0.15 0.15 0.15 0.15 0.15 0.15 
0.15 0.15 0.15 0.15 0.15 0.15 0.15 0.15 0.15 
0.15 0.15 0.15 0.15 0.15 0.15 0.15 0.15 0.15 
0.15 0.15 0.15 0.15 0.15 0.15 0.15 0.15 0.15 
0.15 0.15 0.15 0.15 0.15 0.15 0.15 0.15 0.15 
0.15 0.15 0.15 0.15 0.15 0.15 0.15 0.15 0.15 
0.15 0.15 0.15 0.15 0.15 0.15 0.15 0.15 0.15 
0.15 0.15 0.15 0.15 0.15 0.15 0.15 0.15 0.15 
0.15 0.15 0.15 0.15 0.15 0.15 0.15 0.15 0.15 
0.15 0.15 0.15 0.15 0.15 0.15 0.15 0.15 0.15 
0.15 0.15 0.15 0.15 0.15 0.15 0.15 0.15 0.15 
0.15 0.15 0.15 0.15 0.15 0.15 0.15 0.15 0.15 
0.15 0.15 0.15 0.15 0.15 0.15 0.15 0.15 0.15 
0.15 0.15 0.15 0.15 0.15 0.15 0.15 0.15 0.15 
0.15 0.15 0.15 0.15 0.15 0.15 0.15 0.15 0.15 
0.15 0.15 0.15 0.15 0.15 0.15 0.15 0.15 0.15 
0.15 0.15 0.15 0.15 0.15 0.15 0.15 0.15 0.15 
0.15 0.15 0.15 0.15 0.15 0.15 0.15 0.15 0.15 
0.15 0.15 0.15 0.15 0.15 0.15 0.15 0.15 0.15 
0.15 0.15 0.15 0.15 0.15 0.15 0.15 0.15 0.15 
0.15 0.15 0.15 0.15 0.15 0.15 0.15 0.15 0.15 
0.15 0.15 0.15 0.15 0.15 0.15 0.15 0.15 0.15 
0.15 0.15 0.15 0.15 0.15 0.15 0.15 0.15 0.15 
0.15 0.15 0.15 0.15 0.15 0.15 0.15 0.15 0.15 
0.15 0.15 0.15 0.15 0.15 0.15 0.15 0.15 0.15 
0.15 0.15 0.15 0.15 0.15 0.15 0.15 0.15 0.15 
0.15 0.15 0.15 0.15 0.15 0.15 0.15 0.15 0.15 
0.15 0.15 0.15 0.15 0.15 0.15 0.15 0.15 0.15 
0.15 0.15 0.15 0.15 0.15 0.15 0.15 0.15 0.15 
0.15 0.15 0.15 0.15 0.15 0.15 0.15 0.15 0.15 
0.15 0.15 0.15 0.15 0.15 0.15 0.15 0.15 0.15 
0.15 0.15 0.15 0.15 0.15 0.15 0.15 0.15 0.15 
0.15 0.15 0.15 0.15 0.15 0.15 0.15 0.15 0.15 
0.15 0.15 0.15 0.15 0.15 0.15 0.15 0.15 0.15 
0.15 0.15 0.15 0.15 0.15 0.15 0.15 0.15 0.15 
0.15 0.15 0.15 0.15 0.15 0.15 0.15 0.15 0.15 
0.15 0.15 0.15 0.15 0.15 0.15 0.15 0.15 0.15 
0.15 0.15 0.15 0.15 0.15 0.15 0.15 0.15 0.15 
0.15 0.15 0.15 0.15 0.15 0.15 0.15 0.15 0.15 
0.15 0.15 0.15 0.15 0.15 0.15 0.15 0.15 0.15 
0.15 0.15 0.15 0.15 0.15 0.15 0.15 0.15 0.15 
0.15 0.15 0.15 0.15 0.15 0.15 0.15 0.15 0.15 
0.15 0.15 0.15 0.15 0.15 0.15 0.15 0.15 0.15 
0.15 0.15 0.15 0.15 0.15 0.15 0.15 0.15 0.15 
0.15 0.15 0.15 0.15 0.15 0.15 0.15 0.15 0.15 
0.15 0.15 0.15 0.15 0.15 0.15 0.15 0.15 0.15 
0.15 0.15 0.15 0.15 0.15 0.15 0.15 0.15 0.15 
0.15 0.15 0.15 0.15 0.15 0.15 0.15 0.15 0.15 
0.15 0.15 0.15 0.15 0.15 0.15 0.15 0.15 0.15 
0.15 0.15 0.15 0.15 0.15 0.15 0.15 0.15 0.15 
0.15 0.15 0.15 0.15 0.15 0.15 0.15 0.15 0.15 
0.15 0.15 0.15 0.15 0.15 0.15 0.15 0.15 0.15 
0.15 0.15 0.15 0.15 0.15 0.15 0.15 0.15 0.15 
0.15 0.15 0.15 0.15 0.15 0.15 0.15 0.15 0.15 
0.15 0.15 0.15 0.15 0.15 0.15 0.15 0.15 0.15 
0.15 0.15 0.15 0.15 0.15 0.15 0.15 0.15 0.15 
0.15 0.15 0.15 0.15 0.15 0.15 0.15 0.15 0.15 
0.15 0.15 0.15 0.15 0.15 0.15 0.15 0.15 0.15 
0.15 0.15 0.15 0.15 0.15 0.15 0.15 0.15 0.15 
0.15 0.15 0.15 0.15 0.15 0.15 0.15 0.15 0.15 
0.15 0.15 0.15 0.15 0.15 0.15 0.15 0.15 0.15 
0.15 0.15 0.15 0.15 0.15 0.15 0.15 0.15 0.15 
0.15 0.15 0.15 0.15 0.15 0.15 0.15 0.15 0.15 
0.15 0.15 0.15 0.15 0.15 0.15 0.15 0.15 0.15 
0.15 0.15 0.15 0.15 0.15 0.15 0.15 0.15 0.15 
0.15 0.15 0.15 0.15 0.15 0.15 0.15 0.15 0.15 
0.15 0.15 0.15 0.15 0.15 0.15 0.15 0.15 0.15 
0.15 0.15 0.15 0.15 0.15 0.15 0.15 0.15 0.15 
0.15 0.15 0.15 0.15 0.15 0.15 0.15 0.15 0.15 
0.15 0.15 0.15 0.15 0.15 0.15 0.15 0.15 0.15 
0.15 0.15 0.15 0.15 0.15 0.15 0.15 0.15 0.15 
0.15 0.15 0.15 0.15 0.15 0.15 0.15 0.15 0.15 
0.15 0.15 0.15 0.15 0.15 0.15 0.15 0.15 0.15 
0.15 0.15 0.15 0.15 0.15 0.15 0.15 0.15 0.15 
0.15 0.15 0.15 0.15 0.15 0.15 0.15 0.15 0.15 
0.15 0.15 0.15 0.15 0.15 0.15 0.15 0.15 0.15 
0.15 0.15 0.15 0.15 0.15 0.15 0.15 0.15 0.15 
0.15 0.15 0.15 0.15 0.15 0.15 0.15 0.15 0.15 
0.15 0.15 0.15 0.15 0.15 0.15 0.15 0.15 0.15 
0.15 0.15 0.15 0.15 0.15 0.15 0.15 0.15 0.15 
0.15 0.15 0.15 0.15 0.15 0.15 0.15 0.15 0.15 
0.15 0.15 0.15 0.15 0.15 0.15 0.15 0.15 0.15 
0.15 0.15 0.15 0.15 0.15 0.15 0.15 0.15 0.15 
0.15 0.15 0.15 0.15 0.15 0.15 0.15 0.15 0.15 
0.15 0.15 0.15 0.15 0.15 0.15 0.15 0.15 0.15 
0.15 0.15 0.15 0.15 0.15 0.15 0.15 0.15 0.15 
0.15 0.15 0.15 0.15 0.15 0.15 0.15 0.15 0.15 
0.15 0.15 0.15 0.15 0.15 0.15 0.15 0.15 0.15 
0.15 0.15 0.15 0.15 0.15 0.15 0.15 0.15 0.15 
0.15 0.15 0.15 0.15 0.15 0.15 0.15 0.15 0.15 
0.15 0.15 0.15 0.15 0.15 0.15 0.15 0.15 0.15 
0.15 0.15 0.15 0.15 0.15 0.15 0.15 0.15 0.15 
0.15 0.15 0.15 0.15 0.15 0.15 0.15 0.15 0.15 
0.15 0.15 0.15 0.15 0.15 0.15 0.15 0.15 0.15 
0.15 0.15 0.15 0.15 0.15 0.15 0.15 0.15 0.15 
0.15 0.15 0.15 0.15 0.15 0.15 0.15 0.15 0.15 
0.15 0.15 0.15 0.15 0.15 0.15 0.15 0.15 0.15 
0.15 0.15 0.15 0.15 0.15 0.15 0.15 0.15 0.15 
0.15 0.15 0.15 0.15 0.15 0.15 0.15 0.15 0.15 
0.15 0.15 0.15 0.15 0.15 0.15 0.15 0.15 0.15 
0.15 0.15 0.15 0.15 0.15 0.15 0.15 0.15 0.15 
0.15 0.15 0.15 0.15 0.15 0.15 0.15 0.15 0.15 
0.15 0.15 0.15 0.15 0.15 0.15 0.15 0.15 0.15 
0.15 0.15 0.15 0.15 0.15 0.15 0.15 0.15 0.15 
0.15 0.15 0.15 0.15 0.15 0.15 0.15 0.15 0.15 
0.15 0.15 0.15 0.15 0.15 0.15 0.15 0.15 0.15 
0.15 0.15 0.15 0.15 0.15 0.15 0.15 0.15 0.15 
0.15 0.15 0.15 0.15 0.15 0.15 0.15 0.15 0.15 
0.15 0.15 0.15 0.15 0.15 0.15 0.15 0.15 0.15 
0.15 0.15 0.15 0.15 0.15 0.15 0.15 0.15 0.15 
0.15 0.15 0.15 0.15 0.15 0.15 0.15 0.15 0.15 
0.15 0.15 0.15 0.15 0.15 0.15 0.15 0.15 0.15 
0.15 0.15 0.15 0.15 0.15 0.15 0.15 0.15 0.15 
0.15 0.15 0.15 0.15 0.15 0.15 0.15 0.15 0.15 
0.15 0.15 0.15 0.15 0.15 0.15 0.15 0.15 0.15 
0.15 0.15 0.15 0.15 0.15 0.15 0.15 0.15 0.15 
0.15 0.15 0.15 0.15 0.15 0.15 0.15 0.15 0.15 
0.15 0.15 0.15 0.15 0.15 0.15 0.15 0.15 0.15 
0.15 0.15 0.15 0.15 0.15 0.15 0.15 0.15 0.15 
0.15 0.15 0.15 0.15 0.15 0.15 0.15 0.15 0.15 
0.15 0.15 0.15 0.15 0.15 0.15 0.15 0.15 0.15 
0.15 0.15 0.15 0.15 0.15 0.15 0.15 0.15 0.15 
0.15 0.15 0.15 0.15 0.15 0.15 0.15 0.15 0.15 
0.15 0.15 0.15 0.15 0.15 0.15 0.15 0.15 0.15 
0.15 0.15 0.15 0.15 0.15 0.15 0.15 0.15 0.15 
0.15 0.15 0.15 0.15 0.15 0.15 0.15 0.15 0.15 
0.15 0.15 0.15 0.15 0.15 0.15 0.15 0.15 0.15 
0.15 0.15 0.15 0.15 0.15 0.15 0.15 0.15 0.15 
0.15 0.15 0.15 0.15 0.15 0.15 0.15 0.15 0.15 
0.15 0.15 0.15 0.15 0.15 0.15 0.15 0.15 0.15 
0.15 0.15 0.15 0.15 0.15 0.15 0.15 0.15 0.15 
0.15 0.15 0.15 0.15 0.15 0.15 0.15 0.15 0.15 
0.15 0.15 0.15 0.15 0.15 0.15 0.15 0.15 0.15 
0.15 0.15 0.15 0.15 0.15 0.15 0.15 0.15 0.15 
0.15 0.15 0.15 0.15 0.15 0.15 0.15 0.15 0.15 
0.15 0.15 0.15 0.15 0.15 0.15 0.15 0.15 0.15 
0.15 0.15 0.15 0.15 0.15 0.15 0.15 0.15 0.15 
0.15 0.15 0.15 0.15 0.15 0.15 0.15 0.15 0.15 
0.15 0.15 0.15 0.15 0.15 0.15 0.15 0.15 0.15 
0.15 0.15 0.15 0.15 0.15 0.15 0.15 0.15 0.15 
0.15 0.15 0.15 0.15 0.15 0.15 0.15 0.15 0.15 
0.15 0.15 0.15 0.15 0.15 0.15 0.15 0.15 0.15 
0.15 0.15 0.15 0.15 0.15 0.15 0.15 0.15 0.15 
0.15 0.15 0.15 0.15 0.15 0.15 0.15 0.15 0.15 
0.15 0.15 0.15 0.15 0.15 0.15 0.15 0.15 0.15 
0.15 0.15 0.15 0.15 0.15 0.15 0.15 0.15 0.15 
0.15 0.15 0.15 0.15 0.15 0.15 0.15 0.15 0.15 
0.15 0.15 0.15 0.15 0.15 0.15 0.15 0.15 0.15 
0.15 0.15 0.15 0.15 0.15 0.15 0.15 0.15 0.15 
0.15 0.15 0.15 0.15 0.15 0.15 0.15 0.15 0.15 
0.15 0.15 0.15 0.15 0.15 0.15 0.15 0.15 0.15 
0.15 0.15 0.15 0.15 0.15 0.15 0.15 0.15 0.15 
0.15 0.15 0.15 0.15 0.15 0.15 0.15 0.15 0.15 
0.15 0.15 0.15 0.15 0.15 0.15 0.15 0.15 0.15 
0.15 0.15 0.15 0.15 0.15 0.15 0.15 0.15 0.15 
0.15 0.15 0.15 0.15 0.15 0.15 0.15 0.15 0.15 
0.15 0.15 0.15 0.15 0.15 0.15 0.15 0.15 0.15 
0.15 0.15 0.15 0.15 0.15 0.15 0.15 0.15 0.15 
0.15 0.15 0.15 0.15 0.15 0.15 0.15 0.15 0.15 
0.15 0.15 0.15 0.15 0.15 0.15 0.15 0.15 0.15 
0.15 0.15 0.15 0.15 0.15 0.15 0.15 0.15 0.15 
0.15 0.15 0.15 0.15 0.15 0.15 0.15 0.15 0.15 
0.15 0.15 0.15 0.15 0.15 0.15 0.15 0.15 0.15 
0.15 0.15 0.15 0.15 0.15 0.15 0.15 0.15 0.15 
0.15 0.15 0.15 0.15 0.15 0.15 0.15 0.15 0.15 
0.15 0.15 0.15 0.15 0.15 0.15 0.15 0.15 0.15 
0.15 0.15 0.15 0.15 0.15 0.15 0.15 0.15 0.15 
0.15 0.15 0.15 0.15 0.15 0.15 0.15 0.15 0.15 
0.15 0.15 0.15 0.15 0.15 0.15 0.15 0.15 0.15 
0.15 0.15 0.15 0.15 0.15 0.15 0.15 0.15 0.15 
0.15 0.15 0.15 0.15 0.15 0.15 0.15 0.15 0.15 
0.15 0.15 0.15 0.15 0.15 0.15 0.15 0.15 0.15 
0.15 0.15 0.15 0.15 0.15 0.15 0.15 0.15 0.15 
0.15 0.15 0.15 0.15 0.15 0.15 0.15 0.15 0.15 
0.15 0.15 0.15 0.15 0.15 0.15 0.15 0.15 0.15 
0.15 0.15 0.15 0.15 0.15 0.15 0.15 0.15 0.15 
0.15 0.15 0.15 0.15 0.15 0.15 0.15 0.15 0.15 
0.15 0.15 0.15 0.15 0.15 0.15 0.15 0.15 0.15 
0.15 0.15 0.15 0.15 0.15 0.15 0.15 0.15 0.15 
0.15 0.15 0.15 0.15 0.15 0.15 0.15 0.15 0.15 
0.15 0.15 0.15 0.15 0.15 0.15 0.15 0.15 0.15 
0.15 0.15 0.15 0.15 0.15 0.15 0.15 0.15 0.15 
0.15 0.15 0.15 0.15 0.15 0.15 0.15 0.15 0.15 
0.15 0.15 0.15 0.15 0.15 0.15 0.15 0.15 0.15 
0.15 0.15 0.15 0.15 0.15 0.15 0.15 0.15 0.15 
0.15 0.15 0.15 0.15 0.15 0.15 0.15 0.15 0.15 
0.15 0.15 0.15 0.15 0.15 0.15 0.15 0.15 0.15 
0.15 0.15 0.15 0.15 0.15 0.15 0.15 0.15 0.15 
0.15 0.15 0.15 0.15 0.15 0.15 0.15 0.15 0.15 
0.15 0.15 0.15 0.15 0.15 0.15 0.15 0.15 0.15 
0.15 0.15 0.15 0.15 0.15 0.15 0.15 0.15 0.15 
0.15 0.15 0.15 0.15 0.15 0.15 0.15 0.15 0.15 
0.15 0.15 0.15 0.15 0.15 0.15 0.15 0.15 0.15 
0.15 0.15 0.15 0.15 0.15 0.15 0.15 0.15 0.15 
0.15 0.15 0.15 0.15 0.15 0.15 0.15 0.15 0.15 
0.15 0.15 0.15 0.15 0.15 0.15 0.15 0.15 0.15 
0.15 0.15 0.15 0.15 0.15 0.15 0.15 0.15 0.15 
0.15 0.15 0.15 0.15 0.15 0.15 0.15 0.15 0.15 
0.15 0.15 0.15 0.15 0.15 0.15 0.15 0.15 0.15 
0.15 0.15 0.15 0.15 0.15 0.15 0.15 0.15 0.15 
0.15 0.15 0.15 0.15 0.15 0.15 0.15 0.15 0.15 
0.15 0.15 0.15 0.15 0.15 0.15 0.15 0.15 0.15 
0.15 0.15 0.15 0.15 0.15 0.15 0.15 0.15 0.15 
0.15 0.15 0.15 0.15 0.15 0.15 0.15 0.15 0.15 
0.15 0.15 0.15 0.15 0.15 0.15 0.15 0.15 0.15 
0.15 0.15 0.15 0.15 0.15 0.15 0.15 0.15 0.15 
0.15 0.15 0.15 0.15 0.15 0.15 0.15 0.15 0.15 
0.15 0.15 0.15 0.15 0.15 0.15 0.15 0.15 0.15 
0.15 0.15 0.15 0.15 0.15 0.15 0.15 0.15 0.15 
0.15 0.15 0.15 0.15 0.15 0.15 0.15 0.15 0.15 
0.15 0.15 0.15 0.15 0.15 0.15 0.15 0.15 0.15 
0.15 0.15 0.15 0.15 0.15 0.15 0.15 0.15 0.15 
0.15 0.15 0.15 0.15 0.15 0.15 0.15 0.15 0.15 
0.15 0.15 0.15 0.15 0.15 0.15 0.15 0.15 0.15 
0.15 0.15 0.15 0.15 0.15 0.15 0.15 0.15 0.15 
0.15 0.15 0.15 0.15 0.15 0.15 0.15 0.15 0.15 
0.15 0.15 0.15 0.15 0.15 0.15 0.15 0.15 0.15 
0.15 0.15 0.15 0.15 0.15 0.15 0.15 0.15 0.15 
0.15 0.15 0.15 0.15 0.15 0.15 0.15 0.15 0.15 
0.15 0.15 0.15 0.15 0.15 0.15 0.15 0.15 0.15 
0.15 0.15 0.15 0.15 0.15 0.15 0.15 0.15 0.15 
0.15 0.15 0.15 0.15 0.15 0.15 0.15 0.15 0.15 
0.15 0.15 0.15 0.15 0.15 0.15 0.15 0.15 0.15 
0.15 0.15 0.15 0.15 0.15 0.15 0.15 0.15 0.15 
0.15 0.15 0.15 0.15 0.15 0.15 0.15 0.15 0.15 
0.15 0.15 0.15 0.15 0.15 0.15 0.15 0.15 0.15 
0.15 0.15 0.15 0.15 0.15 0.15 0.15 0.15 0.15 
0.15 0.15 0.15 0.15 0.15 0.15 0.15 0.15 0.15 
0.15 0.15 0.15 0.15 0.15 0.15 0.15 0.15 0.15 
0.15 0.15 0.15 0.15 0.15 0.15 0.15 0.15 0.15 
0.15 0.15 0.15 0.15 0.15 0.15 0.15 0.15 0.15 
0.15 0.15 0.15 0.15 0.15 0.15 0.15 0.15 0.15 
0.15 0.15 0.15 0.15 0.15 0.15 0.15 0.15 0.15 
0.15 0.15 0.15 0.15 0.15 0.15 0.15 0.15 0.15 
0.15 0.15 0.15 0.15 0.15 0.15 0.15 0.15 0.15 
0.15 0.15 0.15 0.15 0.15 0.15 0.15 0.15 0.15 
0.15 0.15 0.15 0.15 0.15 0.15 0.15 0.15 0.15 
0.15 0.15 0.15 0.15 0.15 0.15 0.15 0.15 0.15 
0.15 0.15 0.15 0.15 0.15 0.15 0.15 0.15 0.15 
0.15 0.15 0.15 0.15 0.15 0.15 0.15 0.15 0.15 
0.15 0.15 0.15 0.15 0.15 0.15 0.15 0.15 0.15 
0.15 0.15 0.15 0.15 0.15 0.15 0.15 0.15 0.15 
0.15 0.15 0.15 0.15 0.15 0.15 0.15 0.15 0.15 
0.15 0.15 0.15 0.15 0.15 0.15 0.15 0.15 0.15 
0.15 0.15 0.15 0.15 0.15 0.15 0.15 0.15 0.15 
0.15 0.15 0.15 0.15 0.15 0.15 0.15 0.15 0.15 
0.15 0.15 0.15 0.15 0.15 0.15 0.15 0.15 0.15 
0.15 0.15 0.15 0.15 0.15 0.15 0.15 0.15 0.15 
0.15 0.15 0.15 0.15 0.15 0.15 0.15 0.15 0.15 
0.15 0.15 0.15 0.15 0.15 0.15 0.15 0.15 0.15 
0.15 0.15 0.15 0.15 0.15 0.15 0.15 0.15 0.15 
0.15 0.15 0.15 0.15 0.15 0.15 0.15 0.15 0.15 
0.15 0.15 0.15 0.15 0.15 0.15 0.15 0.15 0.15 
0.15 0.15 0.15 0.15 0.15 0.15 0.15 0.15 0.15 
0.15 0.15 0.15 0.15 0.15 0.15 0.15 0.15 0.15 
0.15 0.15 0.15 0.15 0.15 0.15 0.15 0.15 0.15 
0.15 0.15 0.15 0.15 0.15 0.15 0.15 0.15 0.15 
0.15 0.15 0.15 0.15 0.15 0.15 0.15 0.15 0.15 
0.15 0.15 0.15 0.15 0.15 0.15 0.15 0.15 0.15 
0.15 0.15 0.15 0.15 0.15 0.15 0.15 0.15 0.15 
0.15 0.15 0.15 0.15 0.15 0.15 0.15 0.15 0.15 
0.15 0.15 0.15 0.15 0.15 0.15 0.15 0.15 0.15 
0.15 0.15 0.15 0.15 0.15 0.15 0.15 0.15 0.15 
0.15 0.15 0.15 0.15 0.15 0.15 0.15 0.15 0.15 
0.15 0.15 0.15 0.15 0.15 0.15 0.15 0.15 0.15 
0.15 0.15 0.15 0.15 0.15 0.15 0.15 0.15 0.15 
0.15 0.15 0.15 0.15 0.15 0.15 0.15 0.15 0.15 
0.15 0.15 0.15 0.15 0.15 0.15 0.15 0.15 0.15 
0.15 0.15 0.15 0.15 0.15 0.15 0.15 0.15 0.15 
0.15 0.15 0.15 0.15 0.15 0.15 0.15 0.15 0.15 
0.15 0.15 0.15 0.15 0.15 0.15 0.15 0.15 0.15 
0.15 0.15 0.15 0.15 0.15 0.15 0.15 0.15 0.15 
0.15 0.15 0.15 0.15 0.15 0.15 0.15 0.15 0.15 
0.15 0.15 0.15 0.15 0.15 0.15 0.15 0.15 0.15 
0.15 0.15 0.15 0.15 0.15 0.15 0.15 0.15 0.15 
0.15 0.15 0.15 0.15 0.15 0.15 0.15 0.15 0.15 
0.15 0.15 0.15 0.15 0.15 0.15 0.15 0.15 0.15 
0.15 0.15 0.15 0.15 0.15 0.15 0.15 0.15 0.15 
0.15 0.15 0.15 0.15 0.15 0.15 0.15 0.15 0.15 
0.15 0.15 0.15 0.15 0.15 0.15 0.15 0.15 0.15 
0.15 0.15 0.15 0.15 0.15 0.15 0.15 0.15 0.15 
0.15 0.15 0.15 0.15 0.15 0.15 0.15 0.15 0.15 
0.15 0.15 0.15 0.15 0.15 0.15 0.15 0.15 0.15 
0.15 0.15 0.15 0.15 0.15 0.15 0.15 0.15 0.15 
0.15 0.15 0.15 0.15 0.15 0.15 0.15 0.15 0.15 
0.15 0.15 0.15 0.15 0.15 0.15 0.15 0.15 0.15 
0.15 0.15 0.15 0.15 0.15 0.15 0.15 0.15 0.15 
0.15 0.15 0.15 0.15 0.15 0.15 0.15 0.15 0.15 
0.15 0.15 0.15 0.15 0.15 0.15 0.15 0.15 0.15 
0.15 0.15 0.15 0.15 0.15 0.15 0.15 0.15 0.15 
0.15 0.15 0.15 0.15 0.15 0.15 0.15 0.15 0.15 
0.15 0.15 0.15 0.15 0.15 0.15 0.15 0.15 0.15 
0.15 0.15 0.15 0.15 0.15 0.15 0.15 0.15 0.15 
0.15 0.15 0.15 0.15 0.15 0.15 0.15 0.15 0.15 
0.15 0.15 0.15 0.15 0.15 0.15 0.15 0.15 0.15 
0.15 0.15 0.15 0.15 0.15 0.15 0.15 0.15 0.15 
0.15 0.15 0.15 0.15 0.15 0.15 0.15 0.15 0.15 
0.15 0.15 0.15 0.15 0.15 0.15 0.15 0.15 0.15 
0.15 0.15 0.15 0.15 0.15 0.15 0.15 0.15 0.15 
0.15 0.15 0.15 0.15 0.15 0.15 0.15 0.15 0.15 
0.15 0.15 0.15 0.15 0.15 0.15 0.15 0.15 0.15 
0.15 0.15 0.15 0.15 0.15 0.15 0.15 0.15 0.15 
0.15 0.15 0.15 0.15 0.15 0.15 0.15 0.15 0.15 
0.15 0.15 0.15 0.15 0.15 0.15 0.15 0.15 0.15 